 Gaussian 16, Revision A.03,
 Gaussian 16:  AS64L-G16RevA.03 25-Dec-2016

 ----------------------------------------------------------------------
 #p opt=modredundant b3lyp/6-31+g(d) scrf=(smd, solvent=tetrahydrofuran
 )
 ----------------------------------------------------------------------

 -----
 title
 -----
 Symbolic Z-matrix:
 Charge = -1 Multiplicity = 1

 SCF Done:  E(RB3LYP) =  -706.362394238     A.U. after   14 cycles
 SCF Done:  E(RB3LYP) =  -706.395274829     A.U. after   13 cycles
 SCF Done:  E(RB3LYP) =  -706.402075566     A.U. after   12 cycles
 SCF Done:  E(RB3LYP) =  -706.404262596     A.U. after   12 cycles
 SCF Done:  E(RB3LYP) =  -706.404419087     A.U. after   11 cycles
 SCF Done:  E(RB3LYP) =  -706.404435952     A.U. after   10 cycles
 SCF Done:  E(RB3LYP) =  -706.404463216     A.U. after   10 cycles
 SCF Done:  E(RB3LYP) =  -706.404468901     A.U. after   10 cycles
 SCF Done:  E(RB3LYP) =  -706.404473860     A.U. after    9 cycles
 SCF Done:  E(RB3LYP) =  -706.404475824     A.U. after    9 cycles
 SCF Done:  E(RB3LYP) =  -706.404476649     A.U. after    9 cycles
 SCF Done:  E(RB3LYP) =  -706.404477103     A.U. after    9 cycles
 SCF Done:  E(RB3LYP) =  -706.404477019     A.U. after    9 cycles
 SCF Done:  E(RB3LYP) =  -706.404476767     A.U. after    9 cycles
 SCF Done:  E(RB3LYP) =  -706.404476535     A.U. after    9 cycles
 SCF Done:  E(RB3LYP) =  -706.404477076     A.U. after   10 cycles
 SCF Done:  E(RB3LYP) =  -706.404476530     A.U. after   10 cycles
 Optimization completed.
    -- Stationary point found.

                         Standard orientation:
 ---------------------------------------------------------------------
 Center     Atomic      Atomic             Coordinates (Angstroms)
 Number     Number       Type             X           Y           Z
 ---------------------------------------------------------------------
      1          6           0       -0.314711    0.788763    0.253319
      2          8           0       -0.295266    1.104923    1.371584
      3          6           0       -0.230496    1.388842   -1.096046
      4          1           0        0.006006    0.640233   -1.846978
      5          1           0       -1.212045    1.833482   -1.305914
      6          1           0        0.538560    2.167942   -1.064628
      7         17           0       -1.602812   -1.087501   -0.078993
      8          6           0        2.009835   -0.342745   -0.022686
      9          7           0        3.069948   -0.857526   -0.031400
 ---------------------------------------------------------------------

 The electronic state is 1-A.
 Alpha  occ. eigenvalues -- -101.47266 -19.21731 -14.26792 -10.35513 -10.20951
 Alpha  occ. eigenvalues --  -10.13473  -9.38686  -7.14786  -7.14295  -7.14273
 Alpha  occ. eigenvalues --   -1.12369  -0.82433  -0.77537  -0.72560  -0.55019
 Alpha  occ. eigenvalues --   -0.47826  -0.47445  -0.47113  -0.39933  -0.39673
 Alpha  occ. eigenvalues --   -0.35719  -0.27496  -0.27322  -0.27087  -0.26070
 Alpha  occ. eigenvalues --   -0.25740  -0.24024
 Alpha virt. eigenvalues --   -0.04883  -0.01602   0.02856   0.04885   0.05337
 Alpha virt. eigenvalues --    0.05611   0.07946   0.08369   0.08901   0.09733
 Alpha virt. eigenvalues --    0.10165   0.11075   0.11287   0.12809   0.13448

 Mulliken charges:
               1
     1  C    0.269659
     2  O   -0.172673
     3  C   -0.579796
     4  H    0.296997
     5  H    0.279335
     6  H    0.279108
     7  Cl  -0.487893
     8  C   -0.223574
     9  N   -0.661162
 Sum of Mulliken charges =  -1.00000

 Dipole moment (field-independent basis, Debye):
    X=             -7.0319    Y=              7.7384    Z=             -2.4847  Tot=             10.7473
 Quadrupole moment (field-independent basis, Debye-Ang):
   XX=            -84.9669   YY=            -48.5387   ZZ=            -46.1657
   XY=              3.4105   XZ=              0.8262   YZ=             -4.1202

 Normal termination of Gaussian 16 at Wed Jan  8 01:12:12 2020.
