 Gaussian 16, Revision A.03,
 Gaussian 16:  AS64L-G16RevA.03 25-Dec-2016

 ----------------------------------------------------------------------
 #p opt=modredundant b3lyp/6-31+g(d) scrf=(smd, solvent=tetrahydrofuran
 )
 ----------------------------------------------------------------------

 -----
 title
 -----
 Symbolic Z-matrix:
 Charge = -1 Multiplicity = 1

 SCF Done:  E(RB3LYP) =  -706.399621924     A.U. after   14 cycles
 SCF Done:  E(RB3LYP) =  -706.426000748     A.U. after   13 cycles
 SCF Done:  E(RB3LYP) =  -706.438181406     A.U. after   13 cycles
 SCF Done:  E(RB3LYP) =  -706.439783862     A.U. after   12 cycles
 SCF Done:  E(RB3LYP) =  -706.439969718     A.U. after   11 cycles
 SCF Done:  E(RB3LYP) =  -706.439893080     A.U. after   11 cycles
 SCF Done:  E(RB3LYP) =  -706.439986047     A.U. after   10 cycles
 SCF Done:  E(RB3LYP) =  -706.439991727     A.U. after   10 cycles
 SCF Done:  E(RB3LYP) =  -706.439992251     A.U. after    9 cycles
 Optimization completed.
    -- Stationary point found.

                         Standard orientation:
 ---------------------------------------------------------------------
 Center     Atomic      Atomic             Coordinates (Angstroms)
 Number     Number       Type             X           Y           Z
 ---------------------------------------------------------------------
      1          6           0        0.443009    0.714265    0.212811
      2          8           0        0.463546    1.144960    1.336113
      3          6           0        0.214035    1.472253   -1.059746
      4          1           0       -0.023080    0.810618   -1.892428
      5          1           0       -0.589308    2.198336   -0.911267
      6          1           0        1.146118    2.013084   -1.282592
      7         17           0       -1.753352   -0.661981    0.008000
      8          6           0        1.293719   -0.731966   -0.060518
      9          7           0        1.980044   -1.665050   -0.184844
 ---------------------------------------------------------------------

 The electronic state is 1-A.
 Alpha  occ. eigenvalues -- -101.42622 -19.15208 -14.32904 -10.32014 -10.22117
 Alpha  occ. eigenvalues --  -10.18184  -9.34039  -7.09922  -7.09759  -7.09748
 Alpha  occ. eigenvalues --   -1.05629  -0.89066  -0.74590  -0.68185  -0.58368
 Alpha  occ. eigenvalues --   -0.48152  -0.43926  -0.43708  -0.39404  -0.36684
 Alpha  occ. eigenvalues --   -0.36372  -0.32861  -0.32763  -0.27107  -0.22496
 Alpha  occ. eigenvalues --   -0.22197  -0.22150
 Alpha virt. eigenvalues --   -0.02885   0.02366   0.03613   0.03882   0.05502
 Alpha virt. eigenvalues --    0.06818   0.06956   0.08600   0.09682   0.10082
 Alpha virt. eigenvalues --    0.10573   0.10753   0.11674   0.13422   0.13767

 Mulliken charges:
               1
     1  C    0.330907
     2  O   -0.344578
     3  C   -0.651332
     4  H    0.255045
     5  H    0.256178
     6  H    0.252511
     7  Cl  -0.777232
     8  C    0.271375
     9  N   -0.592873
 Sum of Mulliken charges =  -1.00000

 Dipole moment (field-independent basis, Debye):
    X=              3.4908    Y=              6.0423    Z=             -2.8786  Tot=              7.5486
 Quadrupole moment (field-independent basis, Debye-Ang):
   XX=            -66.5086   YY=            -54.1572   ZZ=            -48.5019
   XY=              2.3339   XZ=             -0.3896   YZ=             -5.2056

 Normal termination of Gaussian 16 at Wed Jan  8 01:31:53 2020.
