 Gaussian 16, Revision A.03,
 Gaussian 16:  AS64L-G16RevA.03 25-Dec-2016

 ----------------------------------------------------------------------
 #p opt=modredundant b3lyp/6-31+g(d) scrf=(smd, solvent=tetrahydrofuran
 )
 ----------------------------------------------------------------------

 -----
 title
 -----
 Symbolic Z-matrix:
 Charge = -1 Multiplicity = 1

 SCF Done:  E(RB3LYP) =  -706.388719610     A.U. after   14 cycles
 SCF Done:  E(RB3LYP) =  -706.409986376     A.U. after   13 cycles
 SCF Done:  E(RB3LYP) =  -706.417555822     A.U. after   13 cycles
 SCF Done:  E(RB3LYP) =  -706.418127300     A.U. after   12 cycles
 SCF Done:  E(RB3LYP) =  -706.418220138     A.U. after   12 cycles
 SCF Done:  E(RB3LYP) =  -706.418251786     A.U. after   11 cycles
 SCF Done:  E(RB3LYP) =  -706.418255149     A.U. after   10 cycles
 Optimization completed.
    -- Stationary point found.

                         Standard orientation:
 ---------------------------------------------------------------------
 Center     Atomic      Atomic             Coordinates (Angstroms)
 Number     Number       Type             X           Y           Z
 ---------------------------------------------------------------------
      1          6           0        0.446491    0.453363    0.192750
      2          8           0        0.576686    0.917845    1.356973
      3          6           0        0.313684    1.430618   -0.982148
      4          1           0        0.038856    0.939355   -1.918872
      5          1           0       -0.430611    2.189719   -0.729698
      6          1           0        1.288979    1.921572   -1.110800
      7         17           0       -1.644807   -0.484482    0.000607
      8          6           0        1.025910   -0.681424   -0.065189
      9          7           0        1.676357   -1.624652   -0.282744
 ---------------------------------------------------------------------

 The electronic state is 1-A.
 Alpha  occ. eigenvalues -- -101.44529 -19.10684 -14.33287 -10.27147 -10.21791
 Alpha  occ. eigenvalues --  -10.16654  -9.36086  -7.12079  -7.11729  -7.11712
 Alpha  occ. eigenvalues --   -1.00609  -0.89929  -0.75749  -0.70046  -0.66239
 Alpha  occ. eigenvalues --   -0.45982  -0.43425  -0.42491  -0.37990  -0.36626
 Alpha  occ. eigenvalues --   -0.36531  -0.32111  -0.30886  -0.24122  -0.23957
 Alpha  occ. eigenvalues --   -0.23296  -0.22785
 Alpha virt. eigenvalues --   -0.04155   0.02585   0.03150   0.04968   0.05914
 Alpha virt. eigenvalues --    0.07149   0.08392   0.09141   0.09635   0.10429
 Alpha virt. eigenvalues --    0.10660   0.11981   0.13539   0.13844   0.14491

 Mulliken charges:
               1
     1  C   -0.050004
     2  O   -0.478324
     3  C   -0.578374
     4  H    0.229930
     5  H    0.243634
     6  H    0.230224
     7  Cl  -0.576621
     8  C    0.604865
     9  N   -0.625329
 Sum of Mulliken charges =  -1.00000

 Dipole moment (field-independent basis, Debye):
    X=              1.9772    Y=              3.5622    Z=             -3.1579  Tot=              5.1547
 Quadrupole moment (field-independent basis, Debye-Ang):
   XX=            -60.4181   YY=            -53.4718   ZZ=            -50.2881
   XY=              2.3400   XZ=             -1.1505   YZ=             -5.2102

 Normal termination of Gaussian 16 at Wed Jan  8 00:58:13 2020.
