 Gaussian 16, Revision A.03,
 Gaussian 16:  AS64L-G16RevA.03 25-Dec-2016

 ----------------------------------------------------------------------
 #p opt=modredundant b3lyp/6-31+g(d) scrf=(smd, solvent=tetrahydrofuran
 )
 ----------------------------------------------------------------------

 -----
 title
 -----
 Symbolic Z-matrix:
 Charge = -1 Multiplicity = 1

 SCF Done:  E(RB3LYP) =  -706.370302569     A.U. after   15 cycles
 SCF Done:  E(RB3LYP) =  -706.403019927     A.U. after   13 cycles
 SCF Done:  E(RB3LYP) =  -706.428437820     A.U. after   15 cycles
 SCF Done:  E(RB3LYP) =  -706.430442252     A.U. after   12 cycles
 SCF Done:  E(RB3LYP) =  -706.430643677     A.U. after   11 cycles
 SCF Done:  E(RB3LYP) =  -706.430738486     A.U. after   11 cycles
 SCF Done:  E(RB3LYP) =  -706.430797634     A.U. after   11 cycles
 SCF Done:  E(RB3LYP) =  -706.430834569     A.U. after   10 cycles
 SCF Done:  E(RB3LYP) =  -706.430840275     A.U. after   11 cycles
 SCF Done:  E(RB3LYP) =  -706.430845701     A.U. after   10 cycles
 SCF Done:  E(RB3LYP) =  -706.430851832     A.U. after   10 cycles
 SCF Done:  E(RB3LYP) =  -706.430850529     A.U. after    9 cycles
 SCF Done:  E(RB3LYP) =  -706.430850637     A.U. after    9 cycles
 SCF Done:  E(RB3LYP) =  -706.430851749     A.U. after   10 cycles
 SCF Done:  E(RB3LYP) =  -706.430850378     A.U. after   10 cycles
 Optimization completed.
    -- Stationary point found.

                         Standard orientation:
 ---------------------------------------------------------------------
 Center     Atomic      Atomic             Coordinates (Angstroms)
 Number     Number       Type             X           Y           Z
 ---------------------------------------------------------------------
      1          6           0       -0.942377   -0.354893    0.165812
      2          8           0       -1.179547   -0.752951    1.313799
      3          6           0       -0.841714   -1.310173   -1.004546
      4          1           0       -0.240872   -0.904253   -1.820931
      5          1           0       -0.421067   -2.257779   -0.659833
      6          1           0       -1.861899   -1.489648   -1.375351
      7         17           0        2.129877    0.044909    0.058983
      8          6           0       -0.958824    0.921969   -0.077814
      9          7           0       -1.112886    2.052917   -0.308244
 ---------------------------------------------------------------------

 The electronic state is 1-A.
 Alpha  occ. eigenvalues -- -101.41562 -19.15625 -14.35853 -10.29383 -10.23511
 Alpha  occ. eigenvalues --  -10.17886  -9.32896  -7.08720  -7.08654  -7.08653
 Alpha  occ. eigenvalues --   -1.05132  -0.92095  -0.77132  -0.68248  -0.66775
 Alpha  occ. eigenvalues --   -0.48494  -0.45392  -0.45105  -0.39640  -0.38432
 Alpha  occ. eigenvalues --   -0.37732  -0.34114  -0.33068  -0.26926  -0.21427
 Alpha  occ. eigenvalues --   -0.21275  -0.21259
 Alpha virt. eigenvalues --   -0.08290   0.01468   0.02423   0.04712   0.05849
 Alpha virt. eigenvalues --    0.06761   0.08753   0.08971   0.09369   0.10406
 Alpha virt. eigenvalues --    0.10664   0.11717   0.12848   0.13468   0.13980

 Mulliken charges:
               1
     1  C    0.288906
     2  O   -0.412527
     3  C   -0.647161
     4  H    0.252182
     5  H    0.255125
     6  H    0.255005
     7  Cl  -0.901499
     8  C    0.443482
     9  N   -0.533513
 Sum of Mulliken charges =  -1.00000

 Dipole moment (field-independent basis, Debye):
    X=             -8.1676    Y=             -3.0766    Z=             -3.0780  Tot=              9.2547
 Quadrupole moment (field-independent basis, Debye-Ang):
   XX=            -68.2489   YY=            -53.5265   ZZ=            -48.8668
   XY=              2.6016   XZ=              2.7419   YZ=              4.4644

 Normal termination of Gaussian 16 at Wed Jan  8 02:40:56 2020.
