 Gaussian 16, Revision A.03,
 Gaussian 16:  AS64L-G16RevA.03 25-Dec-2016

 ----------------------------------------------------------------------
 #p opt=modredundant b3lyp/6-31+g(d) scrf=(smd, solvent=tetrahydrofuran
 )
 ----------------------------------------------------------------------

 -----
 title
 -----
 Symbolic Z-matrix:
 Charge = -1 Multiplicity = 1

 SCF Done:  E(RB3LYP) =  -706.334301002     A.U. after   14 cycles
 SCF Done:  E(RB3LYP) =  -706.339689622     A.U. after   12 cycles
 SCF Done:  E(RB3LYP) =  -706.340151721     A.U. after   11 cycles
 SCF Done:  E(RB3LYP) =  -706.340200238     A.U. after   11 cycles
 SCF Done:  E(RB3LYP) =  -706.340211292     A.U. after   10 cycles
 SCF Done:  E(RB3LYP) =  -706.340217884     A.U. after   10 cycles
 SCF Done:  E(RB3LYP) =  -706.340220851     A.U. after   10 cycles
 Optimization completed.
    -- Stationary point found.

                         Standard orientation:
 ---------------------------------------------------------------------
 Center     Atomic      Atomic             Coordinates (Angstroms)
 Number     Number       Type             X           Y           Z
 ---------------------------------------------------------------------
      1          6           0       -0.365031    0.271231    0.223880
      2          8           0       -0.363357    0.569732    1.454168
      3          6           0       -0.395407    1.463410   -0.763058
      4          1           0       -0.171135    1.165858   -1.792722
      5          1           0       -1.407766    1.893512   -0.731100
      6          1           0        0.318493    2.223038   -0.436084
      7         17           0       -1.132808   -0.933296   -0.233977
      8          6           0        1.528931   -0.242171   -0.162551
      9          7           0        2.687721   -0.418435   -0.069349
 ---------------------------------------------------------------------

 The electronic state is 1-A.
 Alpha  occ. eigenvalues -- -101.52955 -19.07208 -14.27855 -10.28313 -10.15752
 Alpha  occ. eigenvalues --  -10.14972  -9.45377  -7.21665  -7.20781  -7.20694
 Alpha  occ. eigenvalues --   -1.00133  -0.87920  -0.83726  -0.69802  -0.54065
 Alpha  occ. eigenvalues --   -0.46994  -0.43911  -0.41590  -0.36561  -0.36471
 Alpha  occ. eigenvalues --   -0.34691  -0.29612  -0.28838  -0.28195  -0.26807
 Alpha  occ. eigenvalues --   -0.22297  -0.20927
 Alpha virt. eigenvalues --    0.00928   0.03346   0.05125   0.06219   0.06668
 Alpha virt. eigenvalues --    0.07900   0.08295   0.09006   0.09730   0.09823
 Alpha virt. eigenvalues --    0.10258   0.11180   0.12606   0.13926   0.14226

 Mulliken charges:
               1
     1  C   -0.106734
     2  O   -0.500552
     3  C   -0.510752
     4  H    0.218658
     5  H    0.214067
     6  H    0.231096
     7  Cl   0.217526
     8  C   -0.066486
     9  N   -0.696824
 Sum of Mulliken charges =  -1.00000

 Dipole moment (field-independent basis, Debye):
    X=             -6.7981    Y=              0.8360    Z=             -3.7115  Tot=              7.7903
 Quadrupole moment (field-independent basis, Debye-Ang):
   XX=            -68.2722   YY=            -46.0511   ZZ=            -52.2758
   XY=              3.6845   XZ=              2.4150   YZ=             -2.8896

 Normal termination of Gaussian 16 at Tue Jan  7 22:49:48 2020.
