 Gaussian 16, Revision A.03,
 Gaussian 16:  AS64L-G16RevA.03 25-Dec-2016

 ----------------------------------------------------------------------
 #p opt=modredundant b3lyp/6-31+g(d) scrf=(smd, solvent=tetrahydrofuran
 )
 ----------------------------------------------------------------------

 -----
 title
 -----
 Symbolic Z-matrix:
 Charge = -1 Multiplicity = 1

 SCF Done:  E(RB3LYP) =  -706.397942068     A.U. after   14 cycles
 SCF Done:  E(RB3LYP) =  -706.427761905     A.U. after   13 cycles
 SCF Done:  E(RB3LYP) =  -706.447170734     A.U. after   13 cycles
 SCF Done:  E(RB3LYP) =  -706.449572092     A.U. after   12 cycles
 SCF Done:  E(RB3LYP) =  -706.449885476     A.U. after   11 cycles
 SCF Done:  E(RB3LYP) =  -706.449968418     A.U. after   11 cycles
 SCF Done:  E(RB3LYP) =  -706.449978362     A.U. after   10 cycles
 SCF Done:  E(RB3LYP) =  -706.450002919     A.U. after   10 cycles
 SCF Done:  E(RB3LYP) =  -706.450006816     A.U. after   10 cycles
 SCF Done:  E(RB3LYP) =  -706.450014079     A.U. after    9 cycles
 SCF Done:  E(RB3LYP) =  -706.450011959     A.U. after    9 cycles
 SCF Done:  E(RB3LYP) =  -706.450013204     A.U. after    9 cycles
 SCF Done:  E(RB3LYP) =  -706.450013074     A.U. after    9 cycles
 SCF Done:  E(RB3LYP) =  -706.450014034     A.U. after    9 cycles
 SCF Done:  E(RB3LYP) =  -706.450013611     A.U. after   10 cycles
 Optimization completed.
    -- Stationary point found.

                         Standard orientation:
 ---------------------------------------------------------------------
 Center     Atomic      Atomic             Coordinates (Angstroms)
 Number     Number       Type             X           Y           Z
 ---------------------------------------------------------------------
      1          6           0       -0.763116   -0.587354    0.192993
      2          8           0       -0.901434   -0.997855    1.320251
      3          6           0       -0.605394   -1.402366   -1.052712
      4          1           0       -0.082134   -0.850530   -1.834194
      5          1           0       -0.076180   -2.329864   -0.820317
      6          1           0       -1.616936   -1.649479   -1.409530
      7         17           0        2.001007    0.276252    0.038694
      8          6           0       -1.087882    0.956812   -0.071730
      9          7           0       -1.470291    2.044839   -0.223868
 ---------------------------------------------------------------------

 The electronic state is 1-A.
 Alpha  occ. eigenvalues -- -101.41765 -19.16125 -14.34096 -10.32075 -10.23275
 Alpha  occ. eigenvalues --  -10.18307  -9.33122  -7.08955  -7.08874  -7.08869
 Alpha  occ. eigenvalues --   -1.06276  -0.90270  -0.75144  -0.67114  -0.61326
 Alpha  occ. eigenvalues --   -0.48868  -0.44616  -0.44248  -0.39789  -0.37448
 Alpha  occ. eigenvalues --   -0.36919  -0.33763  -0.33532  -0.27668  -0.21660
 Alpha  occ. eigenvalues --   -0.21470  -0.21467
 Alpha virt. eigenvalues --   -0.04740   0.02342   0.03036   0.03972   0.05603
 Alpha virt. eigenvalues --    0.06719   0.07170   0.08691   0.09525   0.10204
 Alpha virt. eigenvalues --    0.10596   0.10770   0.12171   0.13480   0.13663

 Mulliken charges:
               1
     1  C    0.379793
     2  O   -0.358666
     3  C   -0.687068
     4  H    0.260357
     5  H    0.256042
     6  H    0.258788
     7  Cl  -0.873523
     8  C    0.324120
     9  N   -0.559843
 Sum of Mulliken charges =  -1.00000

 Dipole moment (field-independent basis, Debye):
    X=             -6.6498    Y=             -4.9516    Z=             -2.9996  Tot=              8.8168
 Quadrupole moment (field-independent basis, Debye-Ang):
   XX=            -67.4567   YY=            -54.9581   ZZ=            -48.3976
   XY=              3.1236   XZ=              1.7661   YZ=              4.9829

 Normal termination of Gaussian 16 at Wed Jan  8 02:15:52 2020.
