 Gaussian 16, Revision A.03,
 Gaussian 16:  AS64L-G16RevA.03 25-Dec-2016

 ----------------------------------------------------------------------
 #p opt=modredundant b3lyp/6-31+g(d) scrf=(smd, solvent=tetrahydrofuran
 )
 ----------------------------------------------------------------------

 -----
 title
 -----
 Symbolic Z-matrix:
 Charge = -1 Multiplicity = 1

 SCF Done:  E(RB3LYP) =  -706.403303868     A.U. after   14 cycles
 SCF Done:  E(RB3LYP) =  -706.429814475     A.U. after   12 cycles
 SCF Done:  E(RB3LYP) =  -706.445163331     A.U. after   14 cycles
 SCF Done:  E(RB3LYP) =  -706.446194045     A.U. after   12 cycles
 SCF Done:  E(RB3LYP) =  -706.446348272     A.U. after   11 cycles
 SCF Done:  E(RB3LYP) =  -706.446426439     A.U. after   11 cycles
 SCF Done:  E(RB3LYP) =  -706.446446225     A.U. after   10 cycles
 SCF Done:  E(RB3LYP) =  -706.446449646     A.U. after    9 cycles
 SCF Done:  E(RB3LYP) =  -706.446450284     A.U. after    9 cycles
 SCF Done:  E(RB3LYP) =  -706.446449908     A.U. after    8 cycles
 SCF Done:  E(RB3LYP) =  -706.446449538     A.U. after    8 cycles
 Optimization completed.
    -- Stationary point found.

                         Standard orientation:
 ---------------------------------------------------------------------
 Center     Atomic      Atomic             Coordinates (Angstroms)
 Number     Number       Type             X           Y           Z
 ---------------------------------------------------------------------
      1          6           0        0.648820    0.479119    0.186591
      2          8           0        0.825246    0.907745    1.331365
      3          6           0        0.539036    1.400646   -1.011548
      4          1           0        0.133482    0.899562   -1.892495
      5          1           0       -0.082585    2.260882   -0.752323
      6          1           0        1.554164    1.757360   -1.242075
      7         17           0       -1.830431   -0.288544    0.031654
      8          6           0        0.977141   -0.856671   -0.073931
      9          7           0        1.417187   -1.916154   -0.272688
 ---------------------------------------------------------------------

 The electronic state is 1-A.
 Alpha  occ. eigenvalues -- -101.42845 -19.13408 -14.34062 -10.29259 -10.22886
 Alpha  occ. eigenvalues --  -10.17277  -9.34278  -7.10173  -7.09987  -7.09978
 Alpha  occ. eigenvalues --   -1.03249  -0.90509  -0.74993  -0.68427  -0.65191
 Alpha  occ. eigenvalues --   -0.47329  -0.43609  -0.43428  -0.38849  -0.37233
 Alpha  occ. eigenvalues --   -0.36620  -0.33260  -0.32208  -0.25498  -0.22660
 Alpha  occ. eigenvalues --   -0.22392  -0.22297
 Alpha virt. eigenvalues --   -0.05093   0.02466   0.02916   0.04711   0.05853
 Alpha virt. eigenvalues --    0.06957   0.08132   0.08891   0.09566   0.10407
 Alpha virt. eigenvalues --    0.10662   0.11662   0.12989   0.13701   0.14307

 Mulliken charges:
               1
     1  C    0.172992
     2  O   -0.419826
     3  C   -0.627813
     4  H    0.241552
     5  H    0.251708
     6  H    0.242520
     7  Cl  -0.756378
     8  C    0.476842
     9  N   -0.581597
 Sum of Mulliken charges =  -1.00000

 Dipole moment (field-independent basis, Debye):
    X=              4.6680    Y=              3.9723    Z=             -3.0254  Tot=              6.8353
 Quadrupole moment (field-independent basis, Debye-Ang):
   XX=            -63.1005   YY=            -54.3390   ZZ=            -49.3508
   XY=              2.4349   XZ=             -1.7995   YZ=             -4.9604

 Normal termination of Gaussian 16 at Wed Jan  8 01:30:27 2020.
