 Gaussian 16, Revision A.03,
 Gaussian 16:  AS64L-G16RevA.03 25-Dec-2016

 ----------------------------------------------------------------------
 #p opt=modredundant b3lyp/6-31+g(d) scrf=(smd, solvent=tetrahydrofuran
 )
 ----------------------------------------------------------------------

 -----
 title
 -----
 Symbolic Z-matrix:
 Charge = -1 Multiplicity = 1

 SCF Done:  E(RB3LYP) =  -706.412777533     A.U. after   14 cycles
 SCF Done:  E(RB3LYP) =  -706.418571531     A.U. after   12 cycles
 SCF Done:  E(RB3LYP) =  -706.419196408     A.U. after   12 cycles
 SCF Done:  E(RB3LYP) =  -706.419220907     A.U. after   10 cycles
 SCF Done:  E(RB3LYP) =  -706.419222579     A.U. after    9 cycles
 SCF Done:  E(RB3LYP) =  -706.419222839     A.U. after    8 cycles
 Optimization completed.
    -- Stationary point found.

                         Standard orientation:
 ---------------------------------------------------------------------
 Center     Atomic      Atomic             Coordinates (Angstroms)
 Number     Number       Type             X           Y           Z
 ---------------------------------------------------------------------
      1          6           0       -0.078683    0.472415    0.230483
      2          8           0       -0.143765    0.907944    1.403502
      3          6           0       -0.289324    1.433924   -0.946374
      4          1           0       -0.183134    0.941381   -1.917874
      5          1           0       -1.293059    1.866556   -0.866353
      6          1           0        0.448326    2.241605   -0.867758
      7         17           0       -1.256921   -0.980054   -0.104312
      8          6           0        1.401861   -0.304008   -0.077990
      9          7           0        2.477503   -0.752308   -0.148491
 ---------------------------------------------------------------------

 The electronic state is 1-A.
 Alpha  occ. eigenvalues -- -101.48334 -19.07414 -14.31209 -10.29127 -10.19907
 Alpha  occ. eigenvalues --  -10.16172  -9.40079  -7.16270  -7.15593  -7.15574
 Alpha  occ. eigenvalues --   -0.98133  -0.87446  -0.78134  -0.70271  -0.56241
 Alpha  occ. eigenvalues --   -0.45654  -0.42235  -0.39662  -0.37451  -0.35586
 Alpha  occ. eigenvalues --   -0.34810  -0.31864  -0.31155  -0.26913  -0.26464
 Alpha  occ. eigenvalues --   -0.22535  -0.21387
 Alpha virt. eigenvalues --    0.02367   0.02825   0.04289   0.05243   0.05852
 Alpha virt. eigenvalues --    0.06924   0.07380   0.08912   0.09825   0.10206
 Alpha virt. eigenvalues --    0.10410   0.10909   0.13597   0.13927   0.14177

 Mulliken charges:
               1
     1  C    0.114855
     2  O   -0.506361
     3  C   -0.603716
     4  H    0.223156
     5  H    0.229295
     6  H    0.226600
     7  Cl  -0.239996
     8  C    0.214350
     9  N   -0.658183
 Sum of Mulliken charges =  -1.00000

 Dipole moment (field-independent basis, Debye):
    X=             -2.5268    Y=              2.2027    Z=             -3.5848  Tot=              4.9079
 Quadrupole moment (field-independent basis, Debye-Ang):
   XX=            -63.6621   YY=            -50.2071   ZZ=            -51.6031
   XY=              2.7388   XZ=              1.5420   YZ=             -4.9884

 Normal termination of Gaussian 16 at Tue Jan  7 23:59:06 2020.
