 Gaussian 16, Revision A.03,
 Gaussian 16:  AS64L-G16RevA.03 25-Dec-2016

 ----------------------------------------------------------------------
 #p opt=modredundant b3lyp/6-31+g(d) scrf=(smd, solvent=tetrahydrofuran
 )
 ----------------------------------------------------------------------

 -----
 title
 -----
 Symbolic Z-matrix:
 Charge = -1 Multiplicity = 1

 SCF Done:  E(RB3LYP) =  -706.347814724     A.U. after   14 cycles
 SCF Done:  E(RB3LYP) =  -706.384317484     A.U. after   13 cycles
 SCF Done:  E(RB3LYP) =  -706.394164103     A.U. after   12 cycles
 SCF Done:  E(RB3LYP) =  -706.398113048     A.U. after   11 cycles
 SCF Done:  E(RB3LYP) =  -706.398635626     A.U. after   11 cycles
 SCF Done:  E(RB3LYP) =  -706.398675617     A.U. after   10 cycles
 SCF Done:  E(RB3LYP) =  -706.398704727     A.U. after   10 cycles
 SCF Done:  E(RB3LYP) =  -706.398733922     A.U. after   10 cycles
 SCF Done:  E(RB3LYP) =  -706.398754425     A.U. after   10 cycles
 SCF Done:  E(RB3LYP) =  -706.398761889     A.U. after   10 cycles
 SCF Done:  E(RB3LYP) =  -706.398759134     A.U. after   10 cycles
 SCF Done:  E(RB3LYP) =  -706.398767014     A.U. after   10 cycles
 SCF Done:  E(RB3LYP) =  -706.398766739     A.U. after    8 cycles
 SCF Done:  E(RB3LYP) =  -706.398767635     A.U. after    8 cycles
 Optimization completed.
    -- Stationary point found.

                         Standard orientation:
 ---------------------------------------------------------------------
 Center     Atomic      Atomic             Coordinates (Angstroms)
 Number     Number       Type             X           Y           Z
 ---------------------------------------------------------------------
      1          6           0       -0.197909    0.843124    0.253937
      2          8           0       -0.140404    1.100730    1.374300
      3          6           0       -0.104929    1.321928   -1.129100
      4          1           0        0.040202    0.494846   -1.818890
      5          1           0       -1.049822    1.835538   -1.347276
      6          1           0        0.737051    2.022782   -1.171347
      7         17           0       -1.888163   -0.972220   -0.058420
      8          6           0        2.130215   -0.497224   -0.016809
      9          7           0        3.218615   -0.948319   -0.044560
 ---------------------------------------------------------------------

 The electronic state is 1-A.
 Alpha  occ. eigenvalues -- -101.45813 -19.24679 -14.26887 -10.37315 -10.22279
 Alpha  occ. eigenvalues --  -10.13562  -9.37178  -7.13197  -7.12835  -7.12818
 Alpha  occ. eigenvalues --   -1.15244  -0.82514  -0.78984  -0.71042  -0.56590
 Alpha  occ. eigenvalues --   -0.49677  -0.49141  -0.48618  -0.41497  -0.41196
 Alpha  occ. eigenvalues --   -0.35917  -0.27444  -0.27408  -0.25975  -0.25001
 Alpha  occ. eigenvalues --   -0.24642  -0.24154
 Alpha virt. eigenvalues --   -0.06290  -0.03233   0.02571   0.04775   0.05160
 Alpha virt. eigenvalues --    0.05355   0.07685   0.08004   0.08762   0.09696
 Alpha virt. eigenvalues --    0.09956   0.11052   0.11294   0.12620   0.13311

 Mulliken charges:
               1
     1  C    0.405482
     2  O   -0.148224
     3  C   -0.616917
     4  H    0.317465
     5  H    0.295412
     6  H    0.293422
     7  Cl  -0.635668
     8  C   -0.253707
     9  N   -0.657266
 Sum of Mulliken charges =  -1.00000

 Dipole moment (field-independent basis, Debye):
    X=             -5.8331    Y=              9.2293    Z=             -2.4838  Tot=             11.1971
 Quadrupole moment (field-independent basis, Debye-Ang):
   XX=            -93.0380   YY=            -48.2981   ZZ=            -45.1786
   XY=              3.8948   XZ=              0.5037   YZ=             -4.0196

 Normal termination of Gaussian 16 at Wed Jan  8 01:32:11 2020.
