 Gaussian 16, Revision A.03,
 Gaussian 16:  AS64L-G16RevA.03 25-Dec-2016

 ----------------------------------------------------------------------
 #p opt=modredundant b3lyp/6-31+g(d) scrf=(smd, solvent=tetrahydrofuran
 )
 ----------------------------------------------------------------------

 -----
 title
 -----
 Symbolic Z-matrix:
 Charge = -1 Multiplicity = 1

 SCF Done:  E(RB3LYP) =  -706.368627161     A.U. after   14 cycles
 SCF Done:  E(RB3LYP) =  -706.398616198     A.U. after   13 cycles
 SCF Done:  E(RB3LYP) =  -706.403941629     A.U. after   12 cycles
 SCF Done:  E(RB3LYP) =  -706.405160196     A.U. after   11 cycles
 SCF Done:  E(RB3LYP) =  -706.405260085     A.U. after   10 cycles
 SCF Done:  E(RB3LYP) =  -706.405285839     A.U. after   10 cycles
 SCF Done:  E(RB3LYP) =  -706.405293004     A.U. after   10 cycles
 SCF Done:  E(RB3LYP) =  -706.405300210     A.U. after   10 cycles
 SCF Done:  E(RB3LYP) =  -706.405303840     A.U. after   10 cycles
 SCF Done:  E(RB3LYP) =  -706.405305896     A.U. after   10 cycles
 SCF Done:  E(RB3LYP) =  -706.405306586     A.U. after    9 cycles
 SCF Done:  E(RB3LYP) =  -706.405306650     A.U. after    9 cycles
 SCF Done:  E(RB3LYP) =  -706.405306979     A.U. after    9 cycles
 SCF Done:  E(RB3LYP) =  -706.405307071     A.U. after    8 cycles
 Optimization completed.
    -- Stationary point found.

                         Standard orientation:
 ---------------------------------------------------------------------
 Center     Atomic      Atomic             Coordinates (Angstroms)
 Number     Number       Type             X           Y           Z
 ---------------------------------------------------------------------
      1          6           0       -0.237696    0.779630    0.251635
      2          8           0       -0.277356    1.129248    1.365590
      3          6           0       -0.239076    1.409376   -1.093177
      4          1           0       -0.022761    0.683164   -1.871654
      5          1           0       -1.235361    1.842830   -1.246300
      6          1           0        0.516258    2.203269   -1.084586
      7         17           0       -1.518136   -1.103063   -0.073851
      8          6           0        1.874127   -0.328448   -0.017377
      9          7           0        2.912127   -0.882075   -0.044743
 ---------------------------------------------------------------------

 The electronic state is 1-A.
 Alpha  occ. eigenvalues -- -101.46573 -19.20144 -14.27548 -10.34690 -10.20346
 Alpha  occ. eigenvalues --  -10.14565  -9.38010  -7.14090  -7.13622  -7.13608
 Alpha  occ. eigenvalues --   -1.10834  -0.83255  -0.76725  -0.71940  -0.54264
 Alpha  occ. eigenvalues --   -0.46900  -0.46797  -0.46316  -0.39171  -0.38952
 Alpha  occ. eigenvalues --   -0.36009  -0.28173  -0.28007  -0.26526  -0.25839
 Alpha  occ. eigenvalues --   -0.25187  -0.24327
 Alpha virt. eigenvalues --   -0.04338  -0.00387   0.02950   0.05010   0.05532
 Alpha virt. eigenvalues --    0.05726   0.07796   0.08386   0.08975   0.09845
 Alpha virt. eigenvalues --    0.10352   0.10834   0.11114   0.12856   0.13538

 Mulliken charges:
               1
     1  C    0.233581
     2  O   -0.187901
     3  C   -0.554559
     4  H    0.286202
     5  H    0.271347
     6  H    0.272301
     7  Cl  -0.504305
     8  C   -0.155671
     9  N   -0.660996
 Sum of Mulliken charges =  -1.00000

 Dipole moment (field-independent basis, Debye):
    X=             -5.5257    Y=              7.4048    Z=             -2.5115  Tot=              9.5746
 Quadrupole moment (field-independent basis, Debye-Ang):
   XX=            -79.8050   YY=            -49.4039   ZZ=            -46.6136
   XY=              2.9701   XZ=              0.9794   YZ=             -4.2937

 Normal termination of Gaussian 16 at Wed Jan  8 01:07:32 2020.
