 Gaussian 16, Revision A.03,
 Gaussian 16:  AS64L-G16RevA.03 25-Dec-2016

 ----------------------------------------------------------------------
 #p opt=modredundant b3lyp/6-31+g(d) scrf=(smd, solvent=tetrahydrofuran
 )
 ----------------------------------------------------------------------

 -----
 title
 -----
 Symbolic Z-matrix:
 Charge = -1 Multiplicity = 1

 SCF Done:  E(RB3LYP) =  -706.368291641     A.U. after   15 cycles
 SCF Done:  E(RB3LYP) =  -706.400231477     A.U. after   13 cycles
 SCF Done:  E(RB3LYP) =  -706.412256709     A.U. after   13 cycles
 SCF Done:  E(RB3LYP) =  -706.416562638     A.U. after   12 cycles
 SCF Done:  E(RB3LYP) =  -706.417000671     A.U. after   11 cycles
 SCF Done:  E(RB3LYP) =  -706.417030424     A.U. after   10 cycles
 SCF Done:  E(RB3LYP) =  -706.417046971     A.U. after   10 cycles
 SCF Done:  E(RB3LYP) =  -706.417060400     A.U. after   10 cycles
 SCF Done:  E(RB3LYP) =  -706.417062230     A.U. after    9 cycles
 Optimization completed.
    -- Stationary point found.

                         Standard orientation:
 ---------------------------------------------------------------------
 Center     Atomic      Atomic             Coordinates (Angstroms)
 Number     Number       Type             X           Y           Z
 ---------------------------------------------------------------------
      1          6           0        0.353020    0.866481    0.228537
      2          8           0        0.273254    1.242325    1.335709
      3          6           0        0.118256    1.429624   -1.121018
      4          1           0       -0.046167    0.640403   -1.851193
      5          1           0       -0.740163    2.106202   -1.077852
      6          1           0        1.025084    1.992339   -1.385614
      7         17           0       -1.872937   -0.816153   -0.003542
      8          6           0        1.618986   -0.660905   -0.025274
      9          7           0        2.410511   -1.516307   -0.114896
 ---------------------------------------------------------------------

 The electronic state is 1-A.
 Alpha  occ. eigenvalues -- -101.42077 -19.20039 -14.31322 -10.34850 -10.20180
 Alpha  occ. eigenvalues --  -10.19808  -9.33442  -7.09290  -7.09185  -7.09179
 Alpha  occ. eigenvalues --   -1.10682  -0.87218  -0.76537  -0.67442  -0.55475
 Alpha  occ. eigenvalues --   -0.49292  -0.46841  -0.45995  -0.40140  -0.38896
 Alpha  occ. eigenvalues --   -0.37170  -0.31513  -0.31407  -0.28796  -0.22050
 Alpha  occ. eigenvalues --   -0.21753  -0.21727
 Alpha virt. eigenvalues --   -0.03684  -0.00475   0.02592   0.04498   0.05007
 Alpha virt. eigenvalues --    0.06069   0.06669   0.07574   0.08939   0.09844
 Alpha virt. eigenvalues --    0.10172   0.10374   0.10779   0.12831   0.13522

 Mulliken charges:
               1
     1  C    0.497977
     2  O   -0.242558
     3  C   -0.677672
     4  H    0.285749
     5  H    0.271028
     6  H    0.275485
     7  Cl  -0.849071
     8  C    0.044364
     9  N   -0.605303
 Sum of Mulliken charges =  -1.00000

 Dipole moment (field-independent basis, Debye):
    X=              2.8516    Y=              8.5550    Z=             -2.6922  Tot=              9.4111
 Quadrupole moment (field-independent basis, Debye-Ang):
   XX=            -75.2755   YY=            -53.0344   ZZ=            -46.7227
   XY=              2.8481   XZ=              0.1877   YZ=             -4.8306

 Normal termination of Gaussian 16 at Wed Jan  8 01:58:36 2020.
