 Gaussian 16, Revision A.03,
 Gaussian 16:  AS64L-G16RevA.03 25-Dec-2016

 ----------------------------------------------------------------------
 #p opt=modredundant b3lyp/6-31+g(d) scrf=(smd, solvent=tetrahydrofuran
 )
 ----------------------------------------------------------------------

 -----
 title
 -----
 Symbolic Z-matrix:
 Charge = -1 Multiplicity = 1

 SCF Done:  E(RB3LYP) =  -706.355660122     A.U. after   14 cycles
 SCF Done:  E(RB3LYP) =  -706.391447601     A.U. after   13 cycles
 SCF Done:  E(RB3LYP) =  -706.400724474     A.U. after   12 cycles
 SCF Done:  E(RB3LYP) =  -706.404499113     A.U. after   12 cycles
 SCF Done:  E(RB3LYP) =  -706.404956534     A.U. after   11 cycles
 SCF Done:  E(RB3LYP) =  -706.405031958     A.U. after   11 cycles
 SCF Done:  E(RB3LYP) =  -706.405069379     A.U. after   10 cycles
 SCF Done:  E(RB3LYP) =  -706.405107642     A.U. after   11 cycles
 SCF Done:  E(RB3LYP) =  -706.405124822     A.U. after   10 cycles
 SCF Done:  E(RB3LYP) =  -706.405129497     A.U. after   10 cycles
 SCF Done:  E(RB3LYP) =  -706.405148847     A.U. after   10 cycles
 SCF Done:  E(RB3LYP) =  -706.405150533     A.U. after    9 cycles
 SCF Done:  E(RB3LYP) =  -706.405149772     A.U. after   10 cycles
 SCF Done:  E(RB3LYP) =  -706.405150727     A.U. after   10 cycles
 SCF Done:  E(RB3LYP) =  -706.405150461     A.U. after    9 cycles
 SCF Done:  E(RB3LYP) =  -706.405150173     A.U. after    9 cycles
 SCF Done:  E(RB3LYP) =  -706.405150725     A.U. after    9 cycles
 SCF Done:  E(RB3LYP) =  -706.405150697     A.U. after    9 cycles
 SCF Done:  E(RB3LYP) =  -706.405151525     A.U. after    8 cycles
 SCF Done:  E(RB3LYP) =  -706.405152181     A.U. after    8 cycles
 Optimization completed.
    -- Stationary point found.

                         Standard orientation:
 ---------------------------------------------------------------------
 Center     Atomic      Atomic             Coordinates (Angstroms)
 Number     Number       Type             X           Y           Z
 ---------------------------------------------------------------------
      1          6           0       -0.385687    0.768141    0.270653
      2          8           0       -0.247261    0.996013    1.397270
      3          6           0       -0.217148    1.357636   -1.068540
      4          1           0        0.016319    0.588660   -1.801597
      5          1           0       -1.170970    1.834754   -1.327201
      6          1           0        0.582872    2.102605   -1.009050
      7         17           0       -1.804422   -1.005484   -0.091902
      8          6           0        2.229520   -0.434263   -0.082782
      9          7           0        3.352133   -0.792855   -0.027711
 ---------------------------------------------------------------------

 The electronic state is 1-A.
 Alpha  occ. eigenvalues -- -101.48021 -19.23291 -14.26280 -10.36330 -10.21573
 Alpha  occ. eigenvalues --  -10.12770  -9.39428  -7.15543  -7.15035  -7.15003
 Alpha  occ. eigenvalues --   -1.13840  -0.81873  -0.78452  -0.73247  -0.55884
 Alpha  occ. eigenvalues --   -0.48814  -0.48332  -0.47936  -0.40715  -0.40500
 Alpha  occ. eigenvalues --   -0.35440  -0.27909  -0.26974  -0.26856  -0.26548
 Alpha  occ. eigenvalues --   -0.26361  -0.23657
 Alpha virt. eigenvalues --   -0.05247  -0.03100   0.02738   0.04706   0.05140
 Alpha virt. eigenvalues --    0.05457   0.07864   0.08103   0.08836   0.09620
 Alpha virt. eigenvalues --    0.09953   0.11275   0.11493   0.12685   0.13272

 Mulliken charges:
               1
     1  C    0.413340
     2  O   -0.179184
     3  C   -0.682026
     4  H    0.309610
     5  H    0.288976
     6  H    0.285081
     7  Cl  -0.486171
     8  C   -0.292234
     9  N   -0.657393
 Sum of Mulliken charges =  -1.00000

 Dipole moment (field-independent basis, Debye):
    X=             -8.6999    Y=              7.9431    Z=             -2.2761  Tot=             11.9984
 Quadrupole moment (field-independent basis, Debye-Ang):
   XX=            -94.0875   YY=            -47.1202   ZZ=            -45.9151
   XY=              3.8710   XZ=              0.7672   YZ=             -3.8261

 Normal termination of Gaussian 16 at Wed Jan  8 01:14:46 2020.
