 Gaussian 16, Revision A.03,
 Gaussian 16:  AS64L-G16RevA.03 25-Dec-2016

 ----------------------------------------------------------------------
 #p opt=modredundant b3lyp/6-31+g(d) scrf=(smd, solvent=tetrahydrofuran
 )
 ----------------------------------------------------------------------

 -----
 title
 -----
 Symbolic Z-matrix:
 Charge = -1 Multiplicity = 1

 SCF Done:  E(RB3LYP) =  -706.381107938     A.U. after   14 cycles
 SCF Done:  E(RB3LYP) =  -706.406357284     A.U. after   12 cycles
 SCF Done:  E(RB3LYP) =  -706.410677628     A.U. after   12 cycles
 SCF Done:  E(RB3LYP) =  -706.411417351     A.U. after   12 cycles
 SCF Done:  E(RB3LYP) =  -706.411467127     A.U. after   11 cycles
 SCF Done:  E(RB3LYP) =  -706.411475816     A.U. after   10 cycles
 SCF Done:  E(RB3LYP) =  -706.411483836     A.U. after   11 cycles
 SCF Done:  E(RB3LYP) =  -706.411484926     A.U. after    9 cycles
 SCF Done:  E(RB3LYP) =  -706.411485012     A.U. after    8 cycles
 Optimization completed.
    -- Stationary point found.

                         Standard orientation:
 ---------------------------------------------------------------------
 Center     Atomic      Atomic             Coordinates (Angstroms)
 Number     Number       Type             X           Y           Z
 ---------------------------------------------------------------------
      1          6           0       -0.433037    0.620126    0.256342
      2          8           0       -0.415970    0.955811    1.390898
      3          6           0       -0.368540    1.416689   -1.007690
      4          1           0       -0.060479    0.806086   -1.853593
      5          1           0       -1.377356    1.812444   -1.189980
      6          1           0        0.327883    2.246580   -0.859835
      7         17           0       -1.359689   -1.110777   -0.124826
      8          6           0        1.889776   -0.243230   -0.074046
      9          7           0        3.003319   -0.627130   -0.021338
 ---------------------------------------------------------------------

 The electronic state is 1-A.
 Alpha  occ. eigenvalues -- -101.49983 -19.17265 -14.26525 -10.33106 -10.19044
 Alpha  occ. eigenvalues --  -10.13100  -9.41555  -7.17774  -7.17087  -7.17046
 Alpha  occ. eigenvalues --   -1.08076  -0.82178  -0.78599  -0.73418  -0.53315
 Alpha  occ. eigenvalues --   -0.45969  -0.45376  -0.45110  -0.38444  -0.37586
 Alpha  occ. eigenvalues --   -0.35213  -0.28688  -0.28396  -0.27239  -0.27011
 Alpha  occ. eigenvalues --   -0.26869  -0.23544
 Alpha virt. eigenvalues --   -0.02130   0.00928   0.03312   0.05004   0.05607
 Alpha virt. eigenvalues --    0.05984   0.08337   0.08820   0.09003   0.09716
 Alpha virt. eigenvalues --    0.10648   0.11144   0.11218   0.13123   0.13632

 Mulliken charges:
               1
     1  C   -0.019189
     2  O   -0.231429
     3  C   -0.501776
     4  H    0.270489
     5  H    0.257319
     6  H    0.261023
     7  Cl  -0.185585
     8  C   -0.176510
     9  N   -0.674343
 Sum of Mulliken charges =  -1.00000

 Dipole moment (field-independent basis, Debye):
    X=             -8.4627    Y=              4.9067    Z=             -2.5383  Tot=             10.1063
 Quadrupole moment (field-independent basis, Debye-Ang):
   XX=            -79.7989   YY=            -47.3993   ZZ=            -47.8998
   XY=              3.3296   XZ=              1.3599   YZ=             -3.8447

 Normal termination of Gaussian 16 at Wed Jan  8 00:27:32 2020.
