 Gaussian 16, Revision A.03,
 Gaussian 16:  AS64L-G16RevA.03 25-Dec-2016

 ----------------------------------------------------------------------
 #p opt=modredundant b3lyp/6-31+g(d) scrf=(smd, solvent=tetrahydrofuran
 )
 ----------------------------------------------------------------------

 -----
 title
 -----
 Symbolic Z-matrix:
 Charge = -1 Multiplicity = 1

 SCF Done:  E(RB3LYP) =  -706.400528070     A.U. after   14 cycles
 SCF Done:  E(RB3LYP) =  -706.429312681     A.U. after   13 cycles
 SCF Done:  E(RB3LYP) =  -706.447020405     A.U. after   13 cycles
 SCF Done:  E(RB3LYP) =  -706.449033745     A.U. after   12 cycles
 SCF Done:  E(RB3LYP) =  -706.449288109     A.U. after   11 cycles
 SCF Done:  E(RB3LYP) =  -706.449342114     A.U. after   11 cycles
 SCF Done:  E(RB3LYP) =  -706.449356520     A.U. after   11 cycles
 SCF Done:  E(RB3LYP) =  -706.449359479     A.U. after   11 cycles
 SCF Done:  E(RB3LYP) =  -706.449361658     A.U. after    9 cycles
 SCF Done:  E(RB3LYP) =  -706.449361681     A.U. after    8 cycles
 Optimization completed.
    -- Stationary point found.

                         Standard orientation:
 ---------------------------------------------------------------------
 Center     Atomic      Atomic             Coordinates (Angstroms)
 Number     Number       Type             X           Y           Z
 ---------------------------------------------------------------------
      1          6           0       -0.701268   -0.599594    0.197638
      2          8           0       -0.819365   -1.015665    1.326519
      3          6           0       -0.557007   -1.417858   -1.049848
      4          1           0       -0.087896   -0.853367   -1.856196
      5          1           0        0.019438   -2.320312   -0.831510
      6          1           0       -1.570353   -1.711348   -1.363748
      7         17           0        1.936161    0.325364    0.029052
      8          6           0       -1.091067    0.929352   -0.067655
      9          7           0       -1.517851    2.001108   -0.219341
 ---------------------------------------------------------------------

 The electronic state is 1-A.
 Alpha  occ. eigenvalues -- -101.41991 -19.15622 -14.33854 -10.31803 -10.23091
 Alpha  occ. eigenvalues --  -10.18158  -9.33367  -7.09213  -7.09109  -7.09103
 Alpha  occ. eigenvalues --   -1.05807  -0.90061  -0.74913  -0.67417  -0.61081
 Alpha  occ. eigenvalues --   -0.48568  -0.44297  -0.44000  -0.39620  -0.37260
 Alpha  occ. eigenvalues --   -0.36694  -0.33568  -0.33325  -0.27324  -0.21888
 Alpha  occ. eigenvalues --   -0.21667  -0.21656
 Alpha virt. eigenvalues --   -0.04333   0.02389   0.03196   0.04036   0.05628
 Alpha virt. eigenvalues --    0.06768   0.07202   0.08704   0.09567   0.10235
 Alpha virt. eigenvalues --    0.10605   0.10856   0.12262   0.13526   0.13780

 Mulliken charges:
               1
     1  C    0.352881
     2  O   -0.361731
     3  C   -0.675328
     4  H    0.257065
     5  H    0.255293
     6  H    0.255898
     7  Cl  -0.846288
     8  C    0.331290
     9  N   -0.569080
 Sum of Mulliken charges =  -1.00000

 Dipole moment (field-independent basis, Debye):
    X=             -5.9758    Y=             -5.0390    Z=             -2.9610  Tot=              8.3588
 Quadrupole moment (field-independent basis, Debye-Ang):
   XX=            -66.3436   YY=            -54.9383   ZZ=            -48.5352
   XY=              3.0298   XZ=              1.6206   YZ=              5.0406

 Normal termination of Gaussian 16 at Wed Jan  8 01:53:36 2020.
