 Gaussian 16, Revision A.03,
 Gaussian 16:  AS64L-G16RevA.03 25-Dec-2016

 ----------------------------------------------------------------------
 #p opt=modredundant b3lyp/6-31+g(d) scrf=(smd, solvent=tetrahydrofuran
 )
 ----------------------------------------------------------------------

 -----
 title
 -----
 Symbolic Z-matrix:
 Charge = -1 Multiplicity = 1

 SCF Done:  E(RB3LYP) =  -706.339290757     A.U. after   15 cycles
 SCF Done:  E(RB3LYP) =  -706.361714579     A.U. after   13 cycles
 SCF Done:  E(RB3LYP) =  -706.369913753     A.U. after   14 cycles
 SCF Done:  E(RB3LYP) =  -706.370718346     A.U. after   12 cycles
 SCF Done:  E(RB3LYP) =  -706.370768768     A.U. after   12 cycles
 SCF Done:  E(RB3LYP) =  -706.370823195     A.U. after   12 cycles
 SCF Done:  E(RB3LYP) =  -706.370826625     A.U. after   10 cycles
 SCF Done:  E(RB3LYP) =  -706.370826602     A.U. after    9 cycles
 Optimization completed.
    -- Stationary point found.

                         Standard orientation:
 ---------------------------------------------------------------------
 Center     Atomic      Atomic             Coordinates (Angstroms)
 Number     Number       Type             X           Y           Z
 ---------------------------------------------------------------------
      1          6           0        0.488664    0.386702    0.187329
      2          8           0        0.647918    0.852447    1.359714
      3          6           0        0.394481    1.401553   -0.971811
      4          1           0        0.077139    0.948458   -1.914380
      5          1           0       -0.302637    2.192766   -0.686894
      6          1           0        1.394597    1.837524   -1.103799
      7         17           0       -1.665751   -0.397387    0.003750
      8          6           0        0.962368   -0.687051   -0.062992
      9          7           0        1.556034   -1.664281   -0.307363
 ---------------------------------------------------------------------

 The electronic state is 1-A.
 Alpha  occ. eigenvalues -- -101.44630 -19.10704 -14.33268 -10.25976 -10.21096
 Alpha  occ. eigenvalues --  -10.16693  -9.36192  -7.12195  -7.11828  -7.11813
 Alpha  occ. eigenvalues --   -1.00632  -0.89924  -0.77072  -0.70277  -0.67573
 Alpha  occ. eigenvalues --   -0.45911  -0.44177  -0.43145  -0.37862  -0.36913
 Alpha  occ. eigenvalues --   -0.36669  -0.31421  -0.30276  -0.24194  -0.23924
 Alpha  occ. eigenvalues --   -0.23249  -0.22762
 Alpha virt. eigenvalues --   -0.05374   0.02472   0.02881   0.05060   0.05944
 Alpha virt. eigenvalues --    0.07177   0.08747   0.09333   0.09598   0.10460
 Alpha virt. eigenvalues --    0.10678   0.12171   0.13779   0.13953   0.14506

 Mulliken charges:
               1
     1  C   -0.163226
     2  O   -0.491534
     3  C   -0.558683
     4  H    0.229568
     5  H    0.243767
     6  H    0.229001
     7  Cl  -0.565146
     8  C    0.705377
     9  N   -0.629124
 Sum of Mulliken charges =  -1.00000

 Dipole moment (field-independent basis, Debye):
    X=              2.0753    Y=              3.3822    Z=             -3.1343  Tot=              5.0567
 Quadrupole moment (field-independent basis, Debye-Ang):
   XX=            -59.7937   YY=            -53.2745   ZZ=            -50.3067
   XY=              2.4743   XZ=             -1.4428   YZ=             -5.0801

 Normal termination of Gaussian 16 at Wed Jan  8 00:56:30 2020.
