 Gaussian 16, Revision A.03,
 Gaussian 16:  AS64L-G16RevA.03 25-Dec-2016

 ----------------------------------------------------------------------
 #p opt=modredundant b3lyp/6-31+g(d) scrf=(smd, solvent=tetrahydrofuran
 )
 ----------------------------------------------------------------------

 -----
 title
 -----
 Symbolic Z-matrix:
 Charge = -1 Multiplicity = 1

 SCF Done:  E(RB3LYP) =  -706.354306647     A.U. after   15 cycles
 SCF Done:  E(RB3LYP) =  -706.389337539     A.U. after   13 cycles
 SCF Done:  E(RB3LYP) =  -706.402935474     A.U. after   13 cycles
 SCF Done:  E(RB3LYP) =  -706.409235680     A.U. after   12 cycles
 SCF Done:  E(RB3LYP) =  -706.410342880     A.U. after   11 cycles
 SCF Done:  E(RB3LYP) =  -706.410516612     A.U. after   11 cycles
 SCF Done:  E(RB3LYP) =  -706.410549993     A.U. after   11 cycles
 SCF Done:  E(RB3LYP) =  -706.410561771     A.U. after   10 cycles
 SCF Done:  E(RB3LYP) =  -706.410564227     A.U. after    9 cycles
 SCF Done:  E(RB3LYP) =  -706.410565250     A.U. after    8 cycles
 Optimization completed.
    -- Stationary point found.

                         Standard orientation:
 ---------------------------------------------------------------------
 Center     Atomic      Atomic             Coordinates (Angstroms)
 Number     Number       Type             X           Y           Z
 ---------------------------------------------------------------------
      1          6           0        0.416431    0.910186    0.226666
      2          8           0        0.308184    1.254810    1.331243
      3          6           0        0.182928    1.381707   -1.148420
      4          1           0       -0.051702    0.544585   -1.802875
      5          1           0       -0.631843    2.112096   -1.134789
      6          1           0        1.117789    1.855350   -1.478814
      7         17           0       -2.049686   -0.783009    0.000049
      8          6           0        1.758902   -0.687281   -0.009708
      9          7           0        2.542198   -1.552433   -0.092218
 ---------------------------------------------------------------------

 The electronic state is 1-A.
 Alpha  occ. eigenvalues -- -101.41653 -19.22375 -14.30980 -10.36171 -10.21152
 Alpha  occ. eigenvalues --  -10.19218  -9.32994  -7.08813  -7.08756  -7.08751
 Alpha  occ. eigenvalues --   -1.12988  -0.86803  -0.77755  -0.66927  -0.56042
 Alpha  occ. eigenvalues --   -0.49924  -0.48299  -0.47349  -0.40712  -0.40162
 Alpha  occ. eigenvalues --   -0.37830  -0.31161  -0.31088  -0.29021  -0.21630
 Alpha  occ. eigenvalues --   -0.21415  -0.21386
 Alpha virt. eigenvalues --   -0.04553  -0.02227   0.02426   0.04445   0.04784
 Alpha virt. eigenvalues --    0.05738   0.06588   0.07357   0.08806   0.09839
 Alpha virt. eigenvalues --    0.09941   0.10212   0.10729   0.12674   0.13382

 Mulliken charges:
               1
     1  C    0.587254
     2  O   -0.216738
     3  C   -0.708638
     4  H    0.302900
     5  H    0.278034
     6  H    0.287369
     7  Cl  -0.900965
     8  C   -0.022395
     9  N   -0.606821
 Sum of Mulliken charges =  -1.00000

 Dipole moment (field-independent basis, Debye):
    X=              3.5650    Y=              9.4123    Z=             -2.7464  Tot=             10.4328
 Quadrupole moment (field-independent basis, Debye-Ang):
   XX=            -81.2859   YY=            -52.6797   ZZ=            -45.9306
   XY=              3.5473   XZ=              0.0088   YZ=             -4.6138

 Normal termination of Gaussian 16 at Wed Jan  8 02:26:33 2020.
