 Gaussian 16, Revision A.03,
 Gaussian 16:  AS64L-G16RevA.03 25-Dec-2016

 ----------------------------------------------------------------------
 #p opt=modredundant b3lyp/6-31+g(d) scrf=(smd, solvent=tetrahydrofuran
 )
 ----------------------------------------------------------------------

 -----
 title
 -----
 Symbolic Z-matrix:
 Charge = -1 Multiplicity = 1

 SCF Done:  E(RB3LYP) =  -706.381709663     A.U. after   14 cycles
 SCF Done:  E(RB3LYP) =  -706.406215989     A.U. after   12 cycles
 SCF Done:  E(RB3LYP) =  -706.410454691     A.U. after   12 cycles
 SCF Done:  E(RB3LYP) =  -706.411334334     A.U. after   12 cycles
 SCF Done:  E(RB3LYP) =  -706.411471235     A.U. after   11 cycles
 SCF Done:  E(RB3LYP) =  -706.411517388     A.U. after   11 cycles
 SCF Done:  E(RB3LYP) =  -706.411528082     A.U. after   10 cycles
 SCF Done:  E(RB3LYP) =  -706.411531450     A.U. after   10 cycles
 SCF Done:  E(RB3LYP) =  -706.411533463     A.U. after   10 cycles
 SCF Done:  E(RB3LYP) =  -706.411533490     A.U. after    8 cycles
 Optimization completed.
    -- Stationary point found.

                         Standard orientation:
 ---------------------------------------------------------------------
 Center     Atomic      Atomic             Coordinates (Angstroms)
 Number     Number       Type             X           Y           Z
 ---------------------------------------------------------------------
      1          6           0       -0.086054    0.747565    0.247804
      2          8           0       -0.171963    1.138660    1.360633
      3          6           0       -0.221610    1.429564   -1.075553
      4          1           0       -0.080875    0.733525   -1.899527
      5          1           0       -1.218412    1.881472   -1.126943
      6          1           0        0.540354    2.218170   -1.114685
      7         17           0       -1.463438   -1.068487   -0.060042
      8          6           0        1.678116   -0.357144   -0.030270
      9          7           0        2.684338   -0.956868   -0.082154
 ---------------------------------------------------------------------

 The electronic state is 1-A.
 Alpha  occ. eigenvalues -- -101.45435 -19.16994 -14.29346 -10.33159 -10.19156
 Alpha  occ. eigenvalues --  -10.17163  -9.36904  -7.12942  -7.12531  -7.12524
 Alpha  occ. eigenvalues --   -1.07745  -0.85214  -0.75374  -0.70931  -0.53451
 Alpha  occ. eigenvalues --   -0.46809  -0.44846  -0.44700  -0.38666  -0.37513
 Alpha  occ. eigenvalues --   -0.35799  -0.29860  -0.29640  -0.26763  -0.24985
 Alpha  occ. eigenvalues --   -0.24263  -0.24086
 Alpha virt. eigenvalues --   -0.02703   0.01327   0.03121   0.05172   0.05499
 Alpha virt. eigenvalues --    0.06274   0.07348   0.08004   0.09091   0.10028
 Alpha virt. eigenvalues --    0.10380   0.10556   0.11076   0.12936   0.13666

 Mulliken charges:
               1
     1  C    0.275912
     2  O   -0.253316
     3  C   -0.582997
     4  H    0.267234
     5  H    0.258858
     6  H    0.258800
     7  Cl  -0.554293
     8  C   -0.018630
     9  N   -0.651569
 Sum of Mulliken charges =  -1.00000

 Dipole moment (field-independent basis, Debye):
    X=             -2.8182    Y=              6.6126    Z=             -2.6004  Tot=              7.6440
 Quadrupole moment (field-independent basis, Debye-Ang):
   XX=            -72.8762   YY=            -50.8872   ZZ=            -47.6287
   XY=              2.3857   XZ=              1.1303   YZ=             -4.6172

 Normal termination of Gaussian 16 at Wed Jan  8 01:05:09 2020.
