 Gaussian 16, Revision A.03,
 Gaussian 16:  AS64L-G16RevA.03 25-Dec-2016

 ----------------------------------------------------------------------
 #p opt=modredundant b3lyp/6-31+g(d) scrf=(smd, solvent=tetrahydrofuran
 )
 ----------------------------------------------------------------------

 -----
 title
 -----
 Symbolic Z-matrix:
 Charge = -1 Multiplicity = 1

 SCF Done:  E(RB3LYP) =  -706.360886076     A.U. after   14 cycles
 SCF Done:  E(RB3LYP) =  -706.367786549     A.U. after   12 cycles
 SCF Done:  E(RB3LYP) =  -706.368700690     A.U. after   12 cycles
 SCF Done:  E(RB3LYP) =  -706.368786766     A.U. after   11 cycles
 SCF Done:  E(RB3LYP) =  -706.368814833     A.U. after   11 cycles
 SCF Done:  E(RB3LYP) =  -706.368825432     A.U. after   10 cycles
 SCF Done:  E(RB3LYP) =  -706.368827737     A.U. after    9 cycles
 Optimization completed.
    -- Stationary point found.

                         Standard orientation:
 ---------------------------------------------------------------------
 Center     Atomic      Atomic             Coordinates (Angstroms)
 Number     Number       Type             X           Y           Z
 ---------------------------------------------------------------------
      1          6           0        0.029230    0.270506    0.183502
      2          8           0        0.058737    0.699315    1.463786
      3          6           0       -0.122729    1.475635   -0.828761
      4          1           0       -0.151643    1.157274   -1.878675
      5          1           0       -1.054204    1.991624   -0.574442
      6          1           0        0.717671    2.161515   -0.679594
      7         17           0       -1.265723   -0.782990   -0.137814
      8          6           0        1.144451   -0.346907   -0.071615
      9          7           0        2.175693   -0.855644   -0.276212
 ---------------------------------------------------------------------

 The electronic state is 1-A.
 Alpha  occ. eigenvalues -- -101.50560 -19.03715 -14.31295 -10.25122 -10.20321
 Alpha  occ. eigenvalues --  -10.15803  -9.42520  -7.18806  -7.17962  -7.17931
 Alpha  occ. eigenvalues --   -0.95478  -0.87634  -0.81927  -0.70725  -0.64651
 Alpha  occ. eigenvalues --   -0.47390  -0.42999  -0.40376  -0.37204  -0.36117
 Alpha  occ. eigenvalues --   -0.35206  -0.30958  -0.30752  -0.27949  -0.27011
 Alpha  occ. eigenvalues --   -0.19001  -0.18082
 Alpha virt. eigenvalues --    0.02459   0.02719   0.04313   0.05252   0.06170
 Alpha virt. eigenvalues --    0.07344   0.07934   0.09647   0.09938   0.10122
 Alpha virt. eigenvalues --    0.10473   0.11490   0.14067   0.14373   0.14867

 Mulliken charges:
               1
     1  C   -0.139528
     2  O   -0.680243
     3  C   -0.620702
     4  H    0.212684
     5  H    0.225541
     6  H    0.218978
     7  Cl  -0.026087
     8  C    0.530385
     9  N   -0.721028
 Sum of Mulliken charges =  -1.00000

 Dipole moment (field-independent basis, Debye):
    X=             -2.9814    Y=              1.0036    Z=             -4.5591  Tot=              5.5390
 Quadrupole moment (field-independent basis, Debye-Ang):
   XX=            -58.7461   YY=            -49.2354   ZZ=            -54.2624
   XY=              3.7058   XZ=              1.0781   YZ=             -5.0359

 Normal termination of Gaussian 16 at Tue Jan  7 23:13:28 2020.
