 Gaussian 16, Revision A.03,
 Gaussian 16:  AS64L-G16RevA.03 25-Dec-2016

 ----------------------------------------------------------------------
 #p opt=modredundant b3lyp/6-31+g(d) scrf=(smd, solvent=tetrahydrofuran
 )
 ----------------------------------------------------------------------

 -----
 title
 -----
 Symbolic Z-matrix:
 Charge = -1 Multiplicity = 1

 SCF Done:  E(RB3LYP) =  -706.379434452     A.U. after   15 cycles
 SCF Done:  E(RB3LYP) =  -706.408215650     A.U. after   13 cycles
 SCF Done:  E(RB3LYP) =  -706.426729822     A.U. after   15 cycles
 SCF Done:  E(RB3LYP) =  -706.427982070     A.U. after   12 cycles
 SCF Done:  E(RB3LYP) =  -706.428166122     A.U. after   11 cycles
 SCF Done:  E(RB3LYP) =  -706.428255131     A.U. after   11 cycles
 SCF Done:  E(RB3LYP) =  -706.428287875     A.U. after   11 cycles
 SCF Done:  E(RB3LYP) =  -706.428293562     A.U. after   10 cycles
 SCF Done:  E(RB3LYP) =  -706.428294180     A.U. after    9 cycles
 SCF Done:  E(RB3LYP) =  -706.428294179     A.U. after    9 cycles
 SCF Done:  E(RB3LYP) =  -706.428293955     A.U. after    9 cycles
 Optimization completed.
    -- Stationary point found.

                         Standard orientation:
 ---------------------------------------------------------------------
 Center     Atomic      Atomic             Coordinates (Angstroms)
 Number     Number       Type             X           Y           Z
 ---------------------------------------------------------------------
      1          6           0       -0.742587   -0.391823    0.176475
      2          8           0       -0.962778   -0.809849    1.326496
      3          6           0       -0.667779   -1.350522   -1.001344
      4          1           0       -0.184929   -0.908760   -1.875131
      5          1           0       -0.134295   -2.253420   -0.695893
      6          1           0       -1.700023   -1.623304   -1.266814
      7         17           0        1.897354    0.158559    0.043098
      8          6           0       -0.907758    0.873085   -0.073978
      9          7           0       -1.232113    1.969191   -0.301958
 ---------------------------------------------------------------------

 The electronic state is 1-A.
 Alpha  occ. eigenvalues -- -101.42578 -19.13842 -14.34598 -10.28406 -10.22709
 Alpha  occ. eigenvalues --  -10.17318  -9.33984  -7.09866  -7.09702  -7.09698
 Alpha  occ. eigenvalues --   -1.03486  -0.91051  -0.76208  -0.68103  -0.67307
 Alpha  occ. eigenvalues --   -0.47444  -0.44283  -0.44175  -0.38902  -0.37609
 Alpha  occ. eigenvalues --   -0.37104  -0.33188  -0.31976  -0.25622  -0.22402
 Alpha  occ. eigenvalues --   -0.22168  -0.22107
 Alpha virt. eigenvalues --   -0.06700   0.02155   0.02641   0.04825   0.05898
 Alpha virt. eigenvalues --    0.06946   0.08638   0.09036   0.09485   0.10423
 Alpha virt. eigenvalues --    0.10694   0.12016   0.13154   0.13677   0.14289

 Mulliken charges:
               1
     1  C    0.139821
     2  O   -0.429394
     3  C   -0.618053
     4  H    0.242736
     5  H    0.251989
     6  H    0.243750
     7  Cl  -0.787456
     8  C    0.522117
     9  N   -0.565511
 Sum of Mulliken charges =  -1.00000

 Dipole moment (field-independent basis, Debye):
    X=             -5.5390    Y=             -3.4600    Z=             -3.0212  Tot=              7.1958
 Quadrupole moment (field-independent basis, Debye-Ang):
   XX=            -63.5230   YY=            -53.9882   ZZ=            -49.2899
   XY=              2.4414   XZ=              2.2416   YZ=              4.7024

 Normal termination of Gaussian 16 at Wed Jan  8 01:42:05 2020.
