 Gaussian 16, Revision A.03,
 Gaussian 16:  AS64L-G16RevA.03 25-Dec-2016

 ----------------------------------------------------------------------
 #p opt=modredundant b3lyp/6-31+g(d) scrf=(smd, solvent=tetrahydrofuran
 )
 ----------------------------------------------------------------------

 -----
 title
 -----
 Symbolic Z-matrix:
 Charge = -1 Multiplicity = 1

 SCF Done:  E(RB3LYP) =  -706.364603046     A.U. after   14 cycles
 SCF Done:  E(RB3LYP) =  -706.396562060     A.U. after   12 cycles
 SCF Done:  E(RB3LYP) =  -706.406542396     A.U. after   12 cycles
 SCF Done:  E(RB3LYP) =  -706.410173717     A.U. after   12 cycles
 SCF Done:  E(RB3LYP) =  -706.410519837     A.U. after   11 cycles
 SCF Done:  E(RB3LYP) =  -706.410564084     A.U. after   10 cycles
 SCF Done:  E(RB3LYP) =  -706.410600817     A.U. after   10 cycles
 SCF Done:  E(RB3LYP) =  -706.410607823     A.U. after    9 cycles
 SCF Done:  E(RB3LYP) =  -706.410611008     A.U. after    9 cycles
 SCF Done:  E(RB3LYP) =  -706.410611171     A.U. after    8 cycles
 Optimization completed.
    -- Stationary point found.

                         Standard orientation:
 ---------------------------------------------------------------------
 Center     Atomic      Atomic             Coordinates (Angstroms)
 Number     Number       Type             X           Y           Z
 ---------------------------------------------------------------------
      1          6           0        0.209387    0.878206    0.236792
      2          8           0        0.116063    1.240848    1.342638
      3          6           0        0.023803    1.421626   -1.126972
      4          1           0       -0.037634    0.623595   -1.862470
      5          1           0       -0.884451    2.032252   -1.136564
      6          1           0        0.901459    2.050694   -1.331483
      7         17           0       -1.796461   -0.910952   -0.019110
      8          6           0        1.703214   -0.576254   -0.014252
      9          7           0        2.573363   -1.355515   -0.094162
 ---------------------------------------------------------------------

 The electronic state is 1-A.
 Alpha  occ. eigenvalues -- -101.42683 -19.20663 -14.30394 -10.35171 -10.20520
 Alpha  occ. eigenvalues --  -10.18548  -9.34057  -7.09938  -7.09781  -7.09775
 Alpha  occ. eigenvalues --   -1.11326  -0.86243  -0.76803  -0.68067  -0.55120
 Alpha  occ. eigenvalues --   -0.48825  -0.47203  -0.46311  -0.40008  -0.39246
 Alpha  occ. eigenvalues --   -0.37144  -0.30671  -0.30577  -0.28221  -0.22662
 Alpha  occ. eigenvalues --   -0.22220  -0.22204
 Alpha virt. eigenvalues --   -0.04120  -0.00804   0.02610   0.04833   0.04988
 Alpha virt. eigenvalues --    0.05899   0.06822   0.07655   0.08915   0.09977
 Alpha virt. eigenvalues --    0.10153   0.10350   0.10843   0.12776   0.13537

 Mulliken charges:
               1
     1  C    0.462887
     2  O   -0.216645
     3  C   -0.645656
     4  H    0.289266
     5  H    0.273734
     6  H    0.277574
     7  Cl  -0.802712
     8  C   -0.017651
     9  N   -0.620797
 Sum of Mulliken charges =  -1.00000

 Dipole moment (field-independent basis, Debye):
    X=              1.0325    Y=              8.8735    Z=             -2.6176  Tot=              9.3090
 Quadrupole moment (field-independent basis, Debye-Ang):
   XX=            -76.7768   YY=            -52.2457   ZZ=            -46.4408
   XY=              2.7603   XZ=              0.4266   YZ=             -4.7090

 Normal termination of Gaussian 16 at Wed Jan  8 02:33:14 2020.
