 Gaussian 16, Revision A.03,
 Gaussian 16:  AS64L-G16RevA.03 25-Dec-2016

 ----------------------------------------------------------------------
 #p opt=modredundant b3lyp/6-31+g(d) scrf=(smd, solvent=tetrahydrofuran
 )
 ----------------------------------------------------------------------

 -----
 title
 -----
 Symbolic Z-matrix:
 Charge = -1 Multiplicity = 1

 SCF Done:  E(RB3LYP) =  -706.340355728     A.U. after   15 cycles
 SCF Done:  E(RB3LYP) =  -706.377963458     A.U. after   13 cycles
 SCF Done:  E(RB3LYP) =  -706.389575375     A.U. after   12 cycles
 SCF Done:  E(RB3LYP) =  -706.394552416     A.U. after   11 cycles
 SCF Done:  E(RB3LYP) =  -706.395362422     A.U. after   11 cycles
 SCF Done:  E(RB3LYP) =  -706.395414901     A.U. after   10 cycles
 SCF Done:  E(RB3LYP) =  -706.395452769     A.U. after   10 cycles
 SCF Done:  E(RB3LYP) =  -706.395460410     A.U. after    9 cycles
 SCF Done:  E(RB3LYP) =  -706.395465113     A.U. after   10 cycles
 SCF Done:  E(RB3LYP) =  -706.395467123     A.U. after    9 cycles
 SCF Done:  E(RB3LYP) =  -706.395470481     A.U. after   10 cycles
 SCF Done:  E(RB3LYP) =  -706.395473058     A.U. after   10 cycles
 SCF Done:  E(RB3LYP) =  -706.395474439     A.U. after    9 cycles
 SCF Done:  E(RB3LYP) =  -706.395475291     A.U. after    8 cycles
 SCF Done:  E(RB3LYP) =  -706.395475584     A.U. after    8 cycles
 SCF Done:  E(RB3LYP) =  -706.395475716     A.U. after    8 cycles
 Optimization completed.
    -- Stationary point found.

                         Standard orientation:
 ---------------------------------------------------------------------
 Center     Atomic      Atomic             Coordinates (Angstroms)
 Number     Number       Type             X           Y           Z
 ---------------------------------------------------------------------
      1          6           0       -0.048055    0.925170    0.240701
      2          8           0       -0.067314    1.185949    1.356853
      3          6           0       -0.038801    1.312180   -1.167279
      4          1           0        0.039772    0.439802   -1.810344
      5          1           0       -0.977206    1.848898   -1.354494
      6          1           0        0.825404    1.974988   -1.302838
      7         17           0       -1.959390   -0.961921   -0.034410
      8          6           0        2.108274   -0.508432    0.006117
      9          7           0        3.118809   -1.110303   -0.039917
 ---------------------------------------------------------------------

 The electronic state is 1-A.
 Alpha  occ. eigenvalues -- -101.44016 -19.25915 -14.27549 -10.38206 -10.22872
 Alpha  occ. eigenvalues --  -10.14470  -9.35363  -7.11294  -7.11067  -7.11057
 Alpha  occ. eigenvalues --   -1.16487  -0.83205  -0.79714  -0.69246  -0.57320
 Alpha  occ. eigenvalues --   -0.50474  -0.50037  -0.49378  -0.42184  -0.41879
 Alpha  occ. eigenvalues --   -0.36457  -0.28037  -0.28008  -0.25526  -0.24031
 Alpha  occ. eigenvalues --   -0.23262  -0.23249
 Alpha virt. eigenvalues --   -0.06739  -0.03707   0.02343   0.04748   0.05036
 Alpha virt. eigenvalues --    0.05252   0.07412   0.07836   0.08675   0.09734
 Alpha virt. eigenvalues --    0.09912   0.10830   0.11160   0.12561   0.13323

 Mulliken charges:
               1
     1  C    0.447834
     2  O   -0.138224
     3  C   -0.605627
     4  H    0.325518
     5  H    0.300958
     6  H    0.302181
     7  Cl  -0.755519
     8  C   -0.225944
     9  N   -0.651177
 Sum of Mulliken charges =  -1.00000

 Dipole moment (field-independent basis, Debye):
    X=             -3.4058    Y=             10.3615    Z=             -2.6649  Tot=             11.2278
 Quadrupole moment (field-independent basis, Debye-Ang):
   XX=            -92.9506   YY=            -49.4223   ZZ=            -44.6587
   XY=              3.7219   XZ=              0.2946   YZ=             -4.1247

 Normal termination of Gaussian 16 at Wed Jan  8 01:55:04 2020.
