 Gaussian 16, Revision A.03,
 Gaussian 16:  AS64L-G16RevA.03 25-Dec-2016

 ----------------------------------------------------------------------
 #p opt=modredundant b3lyp/6-31+g(d) scrf=(smd, solvent=tetrahydrofuran
 )
 ----------------------------------------------------------------------

 -----
 title
 -----
 Symbolic Z-matrix:
 Charge = -1 Multiplicity = 1

 SCF Done:  E(RB3LYP) =  -706.345130498     A.U. after   14 cycles
 SCF Done:  E(RB3LYP) =  -706.382533475     A.U. after   13 cycles
 SCF Done:  E(RB3LYP) =  -706.393223457     A.U. after   12 cycles
 SCF Done:  E(RB3LYP) =  -706.397648260     A.U. after   12 cycles
 SCF Done:  E(RB3LYP) =  -706.398371451     A.U. after   11 cycles
 SCF Done:  E(RB3LYP) =  -706.398485684     A.U. after   10 cycles
 SCF Done:  E(RB3LYP) =  -706.398540572     A.U. after   10 cycles
 SCF Done:  E(RB3LYP) =  -706.398548413     A.U. after   10 cycles
 SCF Done:  E(RB3LYP) =  -706.398553196     A.U. after    9 cycles
 SCF Done:  E(RB3LYP) =  -706.398555699     A.U. after   10 cycles
 SCF Done:  E(RB3LYP) =  -706.398556402     A.U. after    8 cycles
 SCF Done:  E(RB3LYP) =  -706.398557397     A.U. after    8 cycles
 SCF Done:  E(RB3LYP) =  -706.398558580     A.U. after    8 cycles
 SCF Done:  E(RB3LYP) =  -706.398559788     A.U. after    8 cycles
 SCF Done:  E(RB3LYP) =  -706.398560811     A.U. after    8 cycles
 Optimization completed.
    -- Stationary point found.

                         Standard orientation:
 ---------------------------------------------------------------------
 Center     Atomic      Atomic             Coordinates (Angstroms)
 Number     Number       Type             X           Y           Z
 ---------------------------------------------------------------------
      1          6           0       -0.244511    0.859616    0.253868
      2          8           0       -0.161998    1.102808    1.374539
      3          6           0       -0.129482    1.321283   -1.131072
      4          1           0        0.041328    0.485189   -1.804611
      5          1           0       -1.077842    1.815089   -1.377742
      6          1           0        0.702366    2.034547   -1.166258
      7         17           0       -1.898411   -0.989064   -0.057575
      8          6           0        2.186348   -0.501850   -0.024225
      9          7           0        3.289854   -0.916784   -0.037193
 ---------------------------------------------------------------------

 The electronic state is 1-A.
 Alpha  occ. eigenvalues -- -101.46047 -19.25203 -14.26656 -10.37601 -10.22503
 Alpha  occ. eigenvalues --  -10.13257  -9.37406  -7.13434  -7.13060  -7.13042
 Alpha  occ. eigenvalues --   -1.15732  -0.82268  -0.79302  -0.71244  -0.56900
 Alpha  occ. eigenvalues --   -0.50003  -0.49427  -0.48947  -0.41756  -0.41481
 Alpha  occ. eigenvalues --   -0.35761  -0.27231  -0.27201  -0.26185  -0.25079
 Alpha  occ. eigenvalues --   -0.24820  -0.24015
 Alpha virt. eigenvalues --   -0.06402  -0.03748   0.02512   0.04724   0.05109
 Alpha virt. eigenvalues --    0.05304   0.07704   0.07976   0.08731   0.09626
 Alpha virt. eigenvalues --    0.09915   0.11148   0.11369   0.12616   0.13254

 Mulliken charges:
               1
     1  C    0.425893
     2  O   -0.148907
     3  C   -0.634535
     4  H    0.321112
     5  H    0.299083
     6  H    0.295610
     7  Cl  -0.627980
     8  C   -0.274640
     9  N   -0.655636
 Sum of Mulliken charges =  -1.00000

 Dipole moment (field-independent basis, Debye):
    X=             -6.5433    Y=              9.3669    Z=             -2.4996  Tot=             11.6963
 Quadrupole moment (field-independent basis, Debye-Ang):
   XX=            -95.1866   YY=            -47.9899   ZZ=            -45.0364
   XY=              3.7819   XZ=              0.5367   YZ=             -3.9878

 Normal termination of Gaussian 16 at Wed Jan  8 01:30:48 2020.
