 Gaussian 16, Revision A.03,
 Gaussian 16:  AS64L-G16RevA.03 25-Dec-2016

 ----------------------------------------------------------------------
 #p opt=modredundant b3lyp/6-31+g(d) scrf=(smd, solvent=tetrahydrofuran
 )
 ----------------------------------------------------------------------

 -----
 title
 -----
 Symbolic Z-matrix:
 Charge = -1 Multiplicity = 1

 SCF Done:  E(RB3LYP) =  -706.362759964     A.U. after   14 cycles
 SCF Done:  E(RB3LYP) =  -706.394812569     A.U. after   12 cycles
 SCF Done:  E(RB3LYP) =  -706.403004576     A.U. after   12 cycles
 SCF Done:  E(RB3LYP) =  -706.405898595     A.U. after   11 cycles
 SCF Done:  E(RB3LYP) =  -706.406168360     A.U. after   11 cycles
 SCF Done:  E(RB3LYP) =  -706.406185420     A.U. after   10 cycles
 SCF Done:  E(RB3LYP) =  -706.406194346     A.U. after   10 cycles
 SCF Done:  E(RB3LYP) =  -706.406206171     A.U. after   10 cycles
 SCF Done:  E(RB3LYP) =  -706.406212085     A.U. after   10 cycles
 SCF Done:  E(RB3LYP) =  -706.406212649     A.U. after    9 cycles
 Optimization completed.
    -- Stationary point found.

                         Standard orientation:
 ---------------------------------------------------------------------
 Center     Atomic      Atomic             Coordinates (Angstroms)
 Number     Number       Type             X           Y           Z
 ---------------------------------------------------------------------
      1          6           0        0.078097    0.865795    0.242665
      2          8           0       -0.005683    1.218729    1.349542
      3          6           0       -0.059980    1.405800   -1.127783
      4          1           0       -0.024526    0.611995   -1.868805
      5          1           0       -1.009934    1.947758   -1.184085
      6          1           0        0.779030    2.098937   -1.275634
      7         17           0       -1.736856   -0.975638   -0.031323
      8          6           0        1.781235   -0.503329   -0.011936
      9          7           0        2.718763   -1.204610   -0.078999
 ---------------------------------------------------------------------

 The electronic state is 1-A.
 Alpha  occ. eigenvalues -- -101.43495 -19.21088 -14.29480 -10.35365 -10.20743
 Alpha  occ. eigenvalues --  -10.17276  -9.34879  -7.10804  -7.10578  -7.10572
 Alpha  occ. eigenvalues --   -1.11748  -0.85281  -0.76976  -0.68884  -0.54974
 Alpha  occ. eigenvalues --   -0.48333  -0.47435  -0.46538  -0.39889  -0.39451
 Alpha  occ. eigenvalues --   -0.36994  -0.29836  -0.29752  -0.27449  -0.23455
 Alpha  occ. eigenvalues --   -0.22844  -0.22819
 Alpha virt. eigenvalues --   -0.04636  -0.00854   0.02669   0.04983   0.05102
 Alpha virt. eigenvalues --    0.05787   0.07068   0.07810   0.08912   0.10018
 Alpha virt. eigenvalues --    0.10201   0.10392   0.10928   0.12752   0.13547

 Mulliken charges:
               1
     1  C    0.412118
     2  O   -0.195728
     3  C   -0.613099
     4  H    0.291628
     5  H    0.276253
     6  H    0.278125
     7  Cl  -0.743337
     8  C   -0.070987
     9  N   -0.634973
 Sum of Mulliken charges =  -1.00000

 Dipole moment (field-independent basis, Debye):
    X=             -0.8702    Y=              8.8446    Z=             -2.5652  Tot=              9.2502
 Quadrupole moment (field-independent basis, Debye-Ang):
   XX=            -78.5598   YY=            -51.3747   ZZ=            -46.2542
   XY=              2.7384   XZ=              0.6277   YZ=             -4.5648

 Normal termination of Gaussian 16 at Wed Jan  8 01:36:34 2020.
