 Gaussian 16, Revision A.03,
 Gaussian 16:  AS64L-G16RevA.03 25-Dec-2016

 ----------------------------------------------------------------------
 #p opt=modredundant b3lyp/6-31+g(d) scrf=(smd, solvent=tetrahydrofuran
 )
 ----------------------------------------------------------------------

 -----
 title
 -----
 Symbolic Z-matrix:
 Charge = -1 Multiplicity = 1

 SCF Done:  E(RB3LYP) =  -706.414769895     A.U. after   14 cycles
 SCF Done:  E(RB3LYP) =  -706.434582927     A.U. after   13 cycles
 SCF Done:  E(RB3LYP) =  -706.440473199     A.U. after   13 cycles
 SCF Done:  E(RB3LYP) =  -706.440851105     A.U. after   12 cycles
 SCF Done:  E(RB3LYP) =  -706.440885518     A.U. after   10 cycles
 SCF Done:  E(RB3LYP) =  -706.440890303     A.U. after    9 cycles
 Optimization completed.
    -- Stationary point found.

                         Standard orientation:
 ---------------------------------------------------------------------
 Center     Atomic      Atomic             Coordinates (Angstroms)
 Number     Number       Type             X           Y           Z
 ---------------------------------------------------------------------
      1          6           0        0.240627    0.633503    0.215305
      2          8           0        0.238460    1.086672    1.356035
      3          6           0       -0.021992    1.472356   -1.018379
      4          1           0       -0.116682    0.867355   -1.921977
      5          1           0       -0.931434    2.060815   -0.868885
      6          1           0        0.827669    2.160758   -1.134449
      7         17           0       -1.521804   -0.825926   -0.016863
      8          6           0        1.297945   -0.533250   -0.068893
      9          7           0        2.154852   -1.311031   -0.200641
 ---------------------------------------------------------------------

 The electronic state is 1-A.
 Alpha  occ. eigenvalues -- -101.44322 -19.11659 -14.32728 -10.30089 -10.21952
 Alpha  occ. eigenvalues --  -10.17105  -9.35853  -7.11833  -7.11507  -7.11490
 Alpha  occ. eigenvalues --   -1.01984  -0.89056  -0.74084  -0.69866  -0.59588
 Alpha  occ. eigenvalues --   -0.46540  -0.42736  -0.41821  -0.38506  -0.36211
 Alpha  occ. eigenvalues --   -0.35560  -0.32563  -0.32184  -0.24839  -0.23942
 Alpha  occ. eigenvalues --   -0.23427  -0.22934
 Alpha virt. eigenvalues --   -0.01537   0.02571   0.04026   0.04353   0.05696
 Alpha virt. eigenvalues --    0.07052   0.07195   0.08768   0.09768   0.10305
 Alpha virt. eigenvalues --    0.10596   0.11148   0.12753   0.13764   0.14324

 Mulliken charges:
               1
     1  C    0.183329
     2  O   -0.415755
     3  C   -0.612803
     4  H    0.237600
     5  H    0.245694
     6  H    0.236500
     7  Cl  -0.602282
     8  C    0.346208
     9  N   -0.618491
 Sum of Mulliken charges =  -1.00000

 Dipole moment (field-independent basis, Debye):
    X=              1.0134    Y=              4.6108    Z=             -3.0740  Tot=              5.6335
 Quadrupole moment (field-independent basis, Debye-Ang):
   XX=            -63.4447   YY=            -53.2113   ZZ=            -49.7545
   XY=              1.8210   XZ=              0.2479   YZ=             -5.3321

 Normal termination of Gaussian 16 at Wed Jan  8 00:56:17 2020.
