 Gaussian 16, Revision A.03,
 Gaussian 16:  AS64L-G16RevA.03 25-Dec-2016

 ----------------------------------------------------------------------
 #p opt=modredundant b3lyp/6-31+g(d) scrf=(smd, solvent=tetrahydrofuran
 )
 ----------------------------------------------------------------------

 -----
 title
 -----
 Symbolic Z-matrix:
 Charge = -1 Multiplicity = 1

 SCF Done:  E(RB3LYP) =  -706.367572204     A.U. after   14 cycles
 SCF Done:  E(RB3LYP) =  -706.375967852     A.U. after   12 cycles
 SCF Done:  E(RB3LYP) =  -706.376549388     A.U. after   12 cycles
 SCF Done:  E(RB3LYP) =  -706.376605239     A.U. after   10 cycles
 SCF Done:  E(RB3LYP) =  -706.376620946     A.U. after   10 cycles
 SCF Done:  E(RB3LYP) =  -706.376636159     A.U. after   11 cycles
 SCF Done:  E(RB3LYP) =  -706.376639814     A.U. after   10 cycles
 SCF Done:  E(RB3LYP) =  -706.376640799     A.U. after    9 cycles
 Optimization completed.
    -- Stationary point found.

                         Standard orientation:
 ---------------------------------------------------------------------
 Center     Atomic      Atomic             Coordinates (Angstroms)
 Number     Number       Type             X           Y           Z
 ---------------------------------------------------------------------
      1          6           0       -0.385675    0.344029    0.236094
      2          8           0       -0.385409    0.663039    1.437778
      3          6           0       -0.414057    1.451070   -0.824387
      4          1           0       -0.168045    1.082989   -1.823990
      5          1           0       -1.431047    1.870763   -0.839123
      6          1           0        0.286551    2.239541   -0.538975
      7         17           0       -1.154686   -0.987806   -0.205310
      8          6           0        1.596850   -0.227914   -0.154388
      9          7           0        2.748967   -0.444003   -0.050539
 ---------------------------------------------------------------------

 The electronic state is 1-A.
 Alpha  occ. eigenvalues -- -101.52693 -19.09123 -14.27451 -10.29260 -10.16245
 Alpha  occ. eigenvalues --  -10.14359  -9.44785  -7.21082  -7.20225  -7.20150
 Alpha  occ. eigenvalues --   -1.00811  -0.86179  -0.83244  -0.70444  -0.53446
 Alpha  occ. eigenvalues --   -0.45717  -0.43998  -0.41768  -0.36974  -0.36526
 Alpha  occ. eigenvalues --   -0.34390  -0.29624  -0.29326  -0.27865  -0.26972
 Alpha  occ. eigenvalues --   -0.23324  -0.22230
 Alpha virt. eigenvalues --    0.00621   0.03210   0.05062   0.06084   0.06440
 Alpha virt. eigenvalues --    0.07673   0.08385   0.08925   0.09571   0.09792
 Alpha virt. eigenvalues --    0.10422   0.11041   0.12471   0.13878   0.13984

 Mulliken charges:
               1
     1  C   -0.165326
     2  O   -0.431249
     3  C   -0.478440
     4  H    0.227525
     5  H    0.221041
     6  H    0.235606
     7  Cl   0.171287
     8  C   -0.085651
     9  N   -0.694792
 Sum of Mulliken charges =  -1.00000

 Dipole moment (field-independent basis, Debye):
    X=             -7.2690    Y=              1.3964    Z=             -3.3426  Tot=              8.1216
 Quadrupole moment (field-independent basis, Debye-Ang):
   XX=            -70.3677   YY=            -46.3059   ZZ=            -51.3267
   XY=              3.6882   XZ=              2.1721   YZ=             -3.1903

 Normal termination of Gaussian 16 at Tue Jan  7 23:08:10 2020.
