 Gaussian 16, Revision A.03,
 Gaussian 16:  AS64L-G16RevA.03 25-Dec-2016

 ----------------------------------------------------------------------
 #p opt=modredundant b3lyp/6-31+g(d) scrf=(smd, solvent=tetrahydrofuran
 )
 ----------------------------------------------------------------------

 -----
 title
 -----
 Symbolic Z-matrix:
 Charge = -1 Multiplicity = 1

 SCF Done:  E(RB3LYP) =  -706.330224872     A.U. after   14 cycles
 SCF Done:  E(RB3LYP) =  -706.369592122     A.U. after   13 cycles
 SCF Done:  E(RB3LYP) =  -706.384833202     A.U. after   13 cycles
 SCF Done:  E(RB3LYP) =  -706.393226157     A.U. after   12 cycles
 SCF Done:  E(RB3LYP) =  -706.395113768     A.U. after   12 cycles
 SCF Done:  E(RB3LYP) =  -706.395590223     A.U. after   11 cycles
 SCF Done:  E(RB3LYP) =  -706.396000268     A.U. after   11 cycles
 SCF Done:  E(RB3LYP) =  -706.396199700     A.U. after   11 cycles
 SCF Done:  E(RB3LYP) =  -706.396286097     A.U. after   11 cycles
 SCF Done:  E(RB3LYP) =  -706.396410424     A.U. after   11 cycles
 SCF Done:  E(RB3LYP) =  -706.396548253     A.U. after   10 cycles
 SCF Done:  E(RB3LYP) =  -706.396572297     A.U. after   10 cycles
 SCF Done:  E(RB3LYP) =  -706.396618355     A.U. after   11 cycles
 SCF Done:  E(RB3LYP) =  -706.396602828     A.U. after   11 cycles
 SCF Done:  E(RB3LYP) =  -706.396635226     A.U. after   11 cycles
 SCF Done:  E(RB3LYP) =  -706.396638950     A.U. after    9 cycles
 SCF Done:  E(RB3LYP) =  -706.396639572     A.U. after    9 cycles
 SCF Done:  E(RB3LYP) =  -706.396641279     A.U. after    9 cycles
 SCF Done:  E(RB3LYP) =  -706.396641047     A.U. after    9 cycles
 SCF Done:  E(RB3LYP) =  -706.396641496     A.U. after    8 cycles
 Optimization completed.
    -- Stationary point found.

                         Standard orientation:
 ---------------------------------------------------------------------
 Center     Atomic      Atomic             Coordinates (Angstroms)
 Number     Number       Type             X           Y           Z
 ---------------------------------------------------------------------
      1          6           0        0.348725    0.943345    0.218960
      2          8           0        0.217247    1.191204    1.328669
      3          6           0        0.151214    1.210729   -1.196839
      4          1           0        0.004844    0.273196   -1.732352
      5          1           0       -0.725592    1.861528   -1.290899
      6          1           0        1.060233    1.707674   -1.558155
      7         17           0       -2.336570   -0.783732    0.003568
      8          6           0        2.170252   -0.605699    0.012803
      9          7           0        3.089013   -1.334119   -0.045448
 ---------------------------------------------------------------------

 The electronic state is 1-A.
 Alpha  occ. eigenvalues -- -101.41650 -19.26824 -14.29278 -10.38850 -10.23191
 Alpha  occ. eigenvalues --  -10.16788  -9.32978  -7.08783  -7.08750  -7.08744
 Alpha  occ. eigenvalues --   -1.17386  -0.84986  -0.80335  -0.66867  -0.57978
 Alpha  occ. eigenvalues --   -0.51241  -0.50864  -0.50255  -0.42616  -0.42372
 Alpha  occ. eigenvalues --   -0.37787  -0.29596  -0.29567  -0.27530  -0.21649
 Alpha  occ. eigenvalues --   -0.21442  -0.21408
 Alpha virt. eigenvalues --   -0.06428  -0.04987   0.02111   0.04547   0.04561
 Alpha virt. eigenvalues --    0.05249   0.06787   0.07258   0.08548   0.09638
 Alpha virt. eigenvalues --    0.09881   0.10300   0.10709   0.12483   0.13208

 Mulliken charges:
               1
     1  C    0.660817
     2  O   -0.168808
     3  C   -0.709807
     4  H    0.335007
     5  H    0.301767
     6  H    0.309435
     7  Cl  -0.929865
     8  C   -0.168781
     9  N   -0.629765
 Sum of Mulliken charges =  -1.00000

 Dipole moment (field-independent basis, Debye):
    X=              2.0418    Y=             10.5296    Z=             -2.9400  Tot=             11.1214
 Quadrupole moment (field-independent basis, Debye-Ang):
   XX=            -99.6208   YY=            -50.5161   ZZ=            -44.3882
   XY=              4.2744   XZ=             -0.0131   YZ=             -3.9060

 Normal termination of Gaussian 16 at Wed Jan  8 03:03:55 2020.
