 Gaussian 16, Revision A.03,
 Gaussian 16:  AS64L-G16RevA.03 25-Dec-2016

 ----------------------------------------------------------------------
 #p opt=modredundant b3lyp/6-31+g(d) scrf=(smd, solvent=tetrahydrofuran
 )
 ----------------------------------------------------------------------

 -----
 title
 -----
 Symbolic Z-matrix:
 Charge = -1 Multiplicity = 1

 SCF Done:  E(RB3LYP) =  -706.385926667     A.U. after   14 cycles
 SCF Done:  E(RB3LYP) =  -706.405297542     A.U. after   13 cycles
 SCF Done:  E(RB3LYP) =  -706.408237579     A.U. after   12 cycles
 SCF Done:  E(RB3LYP) =  -706.408455168     A.U. after   11 cycles
 SCF Done:  E(RB3LYP) =  -706.408505687     A.U. after   10 cycles
 SCF Done:  E(RB3LYP) =  -706.408511212     A.U. after   10 cycles
 SCF Done:  E(RB3LYP) =  -706.408516422     A.U. after   10 cycles
 SCF Done:  E(RB3LYP) =  -706.408517400     A.U. after   10 cycles
 SCF Done:  E(RB3LYP) =  -706.408515873     A.U. after   10 cycles
 SCF Done:  E(RB3LYP) =  -706.408515012     A.U. after    9 cycles
 SCF Done:  E(RB3LYP) =  -706.408517399     A.U. after   10 cycles
 SCF Done:  E(RB3LYP) =  -706.408516075     A.U. after   10 cycles
 SCF Done:  E(RB3LYP) =  -706.408516160     A.U. after   10 cycles
 SCF Done:  E(RB3LYP) =  -706.408517763     A.U. after   10 cycles
 SCF Done:  E(RB3LYP) =  -706.408516087     A.U. after   10 cycles
 Optimization completed.
    -- Stationary point found.

                         Standard orientation:
 ---------------------------------------------------------------------
 Center     Atomic      Atomic             Coordinates (Angstroms)
 Number     Number       Type             X           Y           Z
 ---------------------------------------------------------------------
      1          6           0       -0.476146    0.493254    0.251296
      2          8           0       -0.463993    0.827887    1.407816
      3          6           0       -0.457662    1.426067   -0.933786
      4          1           0       -0.138668    0.925616   -1.847646
      5          1           0       -1.482824    1.801454   -1.067459
      6          1           0        0.203957    2.267358   -0.713847
      7         17           0       -1.210798   -1.097687   -0.160036
      8          6           0        1.796482   -0.185144   -0.116040
      9          7           0        2.933859   -0.480272   -0.017397
 ---------------------------------------------------------------------

 The electronic state is 1-A.
 Alpha  occ. eigenvalues -- -101.51865 -19.14017 -14.26480 -10.31499 -10.17766
 Alpha  occ. eigenvalues --  -10.13001  -9.43600  -7.19881  -7.19089  -7.19026
 Alpha  occ. eigenvalues --   -1.04985  -0.82326  -0.82019  -0.72291  -0.53002
 Alpha  occ. eigenvalues --   -0.45462  -0.44600  -0.43491  -0.38106  -0.36587
 Alpha  occ. eigenvalues --   -0.34661  -0.29872  -0.29456  -0.26999  -0.26831
 Alpha  occ. eigenvalues --   -0.26120  -0.23222
 Alpha virt. eigenvalues --   -0.00751   0.02656   0.04401   0.05183   0.05915
 Alpha virt. eigenvalues --    0.06301   0.08524   0.09006   0.09182   0.09693
 Alpha virt. eigenvalues --    0.10951   0.11054   0.11677   0.13461   0.13738

 Mulliken charges:
               1
     1  C   -0.235481
     2  O   -0.291576
     3  C   -0.435418
     4  H    0.251991
     5  H    0.242134
     6  H    0.250334
     7  Cl   0.049483
     8  C   -0.146351
     9  N   -0.685116
 Sum of Mulliken charges =  -1.00000

 Dipole moment (field-independent basis, Debye):
    X=             -8.8329    Y=              2.9808    Z=             -2.7605  Tot=              9.7224
 Quadrupole moment (field-independent basis, Debye-Ang):
   XX=            -76.5725   YY=            -46.5288   ZZ=            -49.2525
   XY=              3.2409   XZ=              1.7981   YZ=             -3.5037

 Normal termination of Gaussian 16 at Tue Jan  7 23:51:45 2020.
