 Gaussian 16, Revision A.03,
 Gaussian 16:  AS64L-G16RevA.03 25-Dec-2016

 ----------------------------------------------------------------------
 #p opt=modredundant b3lyp/6-31+g(d) scrf=(smd, solvent=tetrahydrofuran
 )
 ----------------------------------------------------------------------

 -----
 title
 -----
 Symbolic Z-matrix:
 Charge = -1 Multiplicity = 1

 SCF Done:  E(RB3LYP) =  -706.324470839     A.U. after   16 cycles
 SCF Done:  E(RB3LYP) =  -706.365039819     A.U. after   13 cycles
 SCF Done:  E(RB3LYP) =  -706.380016377     A.U. after   12 cycles
 SCF Done:  E(RB3LYP) =  -706.387820540     A.U. after   12 cycles
 SCF Done:  E(RB3LYP) =  -706.390141831     A.U. after   11 cycles
 SCF Done:  E(RB3LYP) =  -706.390294763     A.U. after   11 cycles
 SCF Done:  E(RB3LYP) =  -706.390245733     A.U. after   11 cycles
 SCF Done:  E(RB3LYP) =  -706.390527455     A.U. after   10 cycles
 SCF Done:  E(RB3LYP) =  -706.390672167     A.U. after   10 cycles
 SCF Done:  E(RB3LYP) =  -706.390759380     A.U. after   10 cycles
 SCF Done:  E(RB3LYP) =  -706.390774910     A.U. after   10 cycles
 SCF Done:  E(RB3LYP) =  -706.390779543     A.U. after    9 cycles
 SCF Done:  E(RB3LYP) =  -706.390781450     A.U. after   10 cycles
 SCF Done:  E(RB3LYP) =  -706.390781855     A.U. after    9 cycles
 SCF Done:  E(RB3LYP) =  -706.390782267     A.U. after    8 cycles
 SCF Done:  E(RB3LYP) =  -706.390783153     A.U. after    8 cycles
 SCF Done:  E(RB3LYP) =  -706.390784759     A.U. after    9 cycles
 SCF Done:  E(RB3LYP) =  -706.390786286     A.U. after    9 cycles
 SCF Done:  E(RB3LYP) =  -706.390785794     A.U. after    8 cycles
 Optimization completed.
    -- Stationary point found.

                         Standard orientation:
 ---------------------------------------------------------------------
 Center     Atomic      Atomic             Coordinates (Angstroms)
 Number     Number       Type             X           Y           Z
 ---------------------------------------------------------------------
      1          6           0        0.006204    0.918220    0.220322
      2          8           0        0.008437    1.110065    1.340692
      3          6           0        0.032786    1.124715   -1.208907
      4          1           0        0.080976    0.167038   -1.725783
      5          1           0       -0.887726    1.660629   -1.471703
      6          1           0        0.925123    1.727096   -1.422720
      7         17           0       -2.292602   -0.834518   -0.010763
      8          6           0        2.403461   -0.515437    0.025931
      9          7           0        3.447666   -1.059067   -0.020919
 ---------------------------------------------------------------------

 The electronic state is 1-A.
 Alpha  occ. eigenvalues -- -101.43201 -19.28864 -14.27152 -10.40134 -10.24194
 Alpha  occ. eigenvalues --  -10.13854  -9.34536  -7.10411  -7.10271  -7.10261
 Alpha  occ. eigenvalues --   -1.19417  -0.82779  -0.81684  -0.68415  -0.59121
 Alpha  occ. eigenvalues --   -0.52312  -0.51987  -0.51471  -0.43728  -0.43464
 Alpha  occ. eigenvalues --   -0.36238  -0.27679  -0.27665  -0.24939  -0.23297
 Alpha  occ. eigenvalues --   -0.22710  -0.22665
 Alpha virt. eigenvalues --   -0.07319  -0.05604   0.01904   0.04564   0.04791
 Alpha virt. eigenvalues --    0.05002   0.07189   0.07585   0.08526   0.09574
 Alpha virt. eigenvalues --    0.09853   0.10939   0.11198   0.12344   0.13112

 Mulliken charges:
               1
     1  C    0.685171
     2  O   -0.166851
     3  C   -0.696018
     4  H    0.349279
     5  H    0.318985
     6  H    0.318799
     7  Cl  -0.844327
     8  C   -0.309959
     9  N   -0.655079
 Sum of Mulliken charges =  -1.00000

 Dipole moment (field-independent basis, Debye):
    X=             -3.1155    Y=             10.5841    Z=             -2.9957  Tot=             11.4326
 Quadrupole moment (field-independent basis, Debye-Ang):
   XX=           -109.3705   YY=            -48.6186   ZZ=            -43.6673
   XY=              4.1403   XZ=             -0.0214   YZ=             -3.5486

 Normal termination of Gaussian 16 at Wed Jan  8 02:26:27 2020.
