 Gaussian 16, Revision A.03,
 Gaussian 16:  AS64L-G16RevA.03 25-Dec-2016

 ----------------------------------------------------------------------
 #p opt=modredundant b3lyp/6-31+g(d) scrf=(smd, solvent=tetrahydrofuran
 )
 ----------------------------------------------------------------------

 -----
 title
 -----
 Symbolic Z-matrix:
 Charge = -1 Multiplicity = 1

 SCF Done:  E(RB3LYP) =  -706.399655173     A.U. after   14 cycles
 SCF Done:  E(RB3LYP) =  -706.405212458     A.U. after   12 cycles
 SCF Done:  E(RB3LYP) =  -706.405657167     A.U. after   11 cycles
 SCF Done:  E(RB3LYP) =  -706.405690594     A.U. after   10 cycles
 SCF Done:  E(RB3LYP) =  -706.405693595     A.U. after   10 cycles
 SCF Done:  E(RB3LYP) =  -706.405694072     A.U. after   10 cycles
 SCF Done:  E(RB3LYP) =  -706.405694198     A.U. after    8 cycles
 Optimization completed.
    -- Stationary point found.

                         Standard orientation:
 ---------------------------------------------------------------------
 Center     Atomic      Atomic             Coordinates (Angstroms)
 Number     Number       Type             X           Y           Z
 ---------------------------------------------------------------------
      1          6           0       -0.225295    0.443065    0.239682
      2          8           0       -0.292582    0.833446    1.414322
      3          6           0       -0.359640    1.434634   -0.917534
      4          1           0       -0.164061    0.972011   -1.888807
      5          1           0       -1.380884    1.837247   -0.907386
      6          1           0        0.344319    2.257745   -0.756255
      7         17           0       -1.202132   -1.019168   -0.144590
      8          6           0        1.512206   -0.248099   -0.097038
      9          7           0        2.630556   -0.598045   -0.093536
 ---------------------------------------------------------------------

 The electronic state is 1-A.
 Alpha  occ. eigenvalues -- -101.49974 -19.08538 -14.29437 -10.29619 -10.17286
 Alpha  occ. eigenvalues --  -10.16370  -9.41776  -7.18029  -7.17252  -7.17230
 Alpha  occ. eigenvalues --   -0.99580  -0.85461  -0.80503  -0.70488  -0.53318
 Alpha  occ. eigenvalues --   -0.45684  -0.42878  -0.40325  -0.37207  -0.36280
 Alpha  occ. eigenvalues --   -0.34152  -0.30637  -0.29629  -0.27951  -0.27132
 Alpha  occ. eigenvalues --   -0.23325  -0.22136
 Alpha virt. eigenvalues --    0.01700   0.03173   0.04719   0.05821   0.06048
 Alpha virt. eigenvalues --    0.07499   0.07642   0.08609   0.09552   0.10077
 Alpha virt. eigenvalues --    0.10357   0.10672   0.12708   0.13813   0.13965

 Mulliken charges:
               1
     1  C    0.077122
     2  O   -0.456214
     3  C   -0.573461
     4  H    0.227245
     5  H    0.226720
     6  H    0.231570
     7  Cl  -0.105146
     8  C    0.050583
     9  N   -0.678419
 Sum of Mulliken charges =  -1.00000

 Dipole moment (field-independent basis, Debye):
    X=             -4.5311    Y=              2.0749    Z=             -3.3960  Tot=              6.0306
 Quadrupole moment (field-independent basis, Debye-Ang):
   XX=            -67.0130   YY=            -48.5329   ZZ=            -51.1973
   XY=              3.2226   XZ=              1.9286   YZ=             -4.2914

 Normal termination of Gaussian 16 at Tue Jan  7 23:44:06 2020.
