 Gaussian 16, Revision A.03,
 Gaussian 16:  AS64L-G16RevA.03 25-Dec-2016

 ----------------------------------------------------------------------
 #p opt=modredundant b3lyp/6-31+g(d) scrf=(smd, solvent=tetrahydrofuran
 )
 ----------------------------------------------------------------------

 -----
 title
 -----
 Symbolic Z-matrix:
 Charge = -1 Multiplicity = 1

 SCF Done:  E(RB3LYP) =  -706.379138858     A.U. after   14 cycles
 SCF Done:  E(RB3LYP) =  -706.404611863     A.U. after   13 cycles
 SCF Done:  E(RB3LYP) =  -706.408509416     A.U. after   12 cycles
 SCF Done:  E(RB3LYP) =  -706.409255155     A.U. after   12 cycles
 SCF Done:  E(RB3LYP) =  -706.409280698     A.U. after   10 cycles
 SCF Done:  E(RB3LYP) =  -706.409292464     A.U. after   10 cycles
 SCF Done:  E(RB3LYP) =  -706.409299683     A.U. after   11 cycles
 SCF Done:  E(RB3LYP) =  -706.409308433     A.U. after   10 cycles
 SCF Done:  E(RB3LYP) =  -706.409309715     A.U. after    8 cycles
 SCF Done:  E(RB3LYP) =  -706.409311557     A.U. after    9 cycles
 SCF Done:  E(RB3LYP) =  -706.409313714     A.U. after   10 cycles
 SCF Done:  E(RB3LYP) =  -706.409315672     A.U. after    9 cycles
 SCF Done:  E(RB3LYP) =  -706.409317920     A.U. after    9 cycles
 SCF Done:  E(RB3LYP) =  -706.409318687     A.U. after    9 cycles
 Optimization completed.
    -- Stationary point found.

                         Standard orientation:
 ---------------------------------------------------------------------
 Center     Atomic      Atomic             Coordinates (Angstroms)
 Number     Number       Type             X           Y           Z
 ---------------------------------------------------------------------
      1          6           0       -0.346451    0.671885    0.253277
      2          8           0       -0.374078    1.030649    1.376510
      3          6           0       -0.320005    1.411309   -1.044302
      4          1           0       -0.046714    0.761072   -1.871821
      5          1           0       -1.328555    1.814318   -1.206726
      6          1           0        0.393644    2.235836   -0.951738
      7         17           0       -1.389462   -1.115388   -0.104190
      8          6           0        1.842931   -0.268197   -0.034563
      9          7           0        2.933752   -0.712116   -0.036720
 ---------------------------------------------------------------------

 The electronic state is 1-A.
 Alpha  occ. eigenvalues -- -101.48556 -19.17739 -14.27100 -10.33396 -10.19332
 Alpha  occ. eigenvalues --  -10.13917  -9.40080  -7.16251  -7.15637  -7.15612
 Alpha  occ. eigenvalues --   -1.08532  -0.82795  -0.77089  -0.73150  -0.53337
 Alpha  occ. eigenvalues --   -0.45772  -0.45703  -0.45335  -0.38309  -0.37942
 Alpha  occ. eigenvalues --   -0.35482  -0.28194  -0.27607  -0.27452  -0.26915
 Alpha  occ. eigenvalues --   -0.26464  -0.24040
 Alpha virt. eigenvalues --   -0.02731   0.00724   0.03212   0.05053   0.05693
 Alpha virt. eigenvalues --    0.05929   0.08093   0.08667   0.09035   0.09796
 Alpha virt. eigenvalues --    0.10564   0.10956   0.11132   0.12997   0.13624

 Mulliken charges:
               1
     1  C    0.081199
     2  O   -0.222565
     3  C   -0.521502
     4  H    0.272411
     5  H    0.260006
     6  H    0.262448
     7  Cl  -0.311895
     8  C   -0.147121
     9  N   -0.672981
 Sum of Mulliken charges =  -1.00000

 Dipole moment (field-independent basis, Debye):
    X=             -7.0369    Y=              5.6367    Z=             -2.5545  Tot=              9.3710
 Quadrupole moment (field-independent basis, Debye-Ang):
   XX=            -78.3817   YY=            -48.3565   ZZ=            -47.5363
   XY=              3.1390   XZ=              1.2733   YZ=             -4.1046

 Normal termination of Gaussian 16 at Wed Jan  8 00:42:28 2020.
