 Gaussian 16, Revision A.03,
 Gaussian 16:  AS64L-G16RevA.03 25-Dec-2016

 ----------------------------------------------------------------------
 #p opt=modredundant b3lyp/6-31+g(d) scrf=(smd, solvent=tetrahydrofuran
 )
 ----------------------------------------------------------------------

 -----
 title
 -----
 Symbolic Z-matrix:
 Charge = -1 Multiplicity = 1

 SCF Done:  E(RB3LYP) =  -706.372811270     A.U. after   14 cycles
 SCF Done:  E(RB3LYP) =  -706.375046691     A.U. after   12 cycles
 SCF Done:  E(RB3LYP) =  -706.375565464     A.U. after   11 cycles
 SCF Done:  E(RB3LYP) =  -706.375603370     A.U. after   11 cycles
 SCF Done:  E(RB3LYP) =  -706.375609228     A.U. after   10 cycles
 SCF Done:  E(RB3LYP) =  -706.375609654     A.U. after    9 cycles
 Optimization completed.
    -- Stationary point found.

                         Standard orientation:
 ---------------------------------------------------------------------
 Center     Atomic      Atomic             Coordinates (Angstroms)
 Number     Number       Type             X           Y           Z
 ---------------------------------------------------------------------
      1          6           0       -0.103289    0.258602    0.192374
      2          8           0       -0.133703    0.648566    1.471412
      3          6           0       -0.270516    1.469097   -0.799975
      4          1           0       -0.197014    1.175733   -1.855963
      5          1           0       -1.258717    1.905946   -0.614188
      6          1           0        0.494905    2.219297   -0.577372
      7         17           0       -1.174423   -0.869299   -0.182477
      8          6           0        1.268546   -0.278792   -0.089187
      9          7           0        2.375313   -0.629266   -0.205850
 ---------------------------------------------------------------------

 The electronic state is 1-A.
 Alpha  occ. eigenvalues -- -101.51173 -19.02955 -14.31373 -10.26550 -10.20531
 Alpha  occ. eigenvalues --  -10.15409  -9.43326  -7.19620  -7.18737  -7.18705
 Alpha  occ. eigenvalues --   -0.95355  -0.87708  -0.83343  -0.69480  -0.60365
 Alpha  occ. eigenvalues --   -0.48174  -0.42315  -0.39885  -0.37263  -0.35549
 Alpha  occ. eigenvalues --   -0.35181  -0.31677  -0.31158  -0.28101  -0.27052
 Alpha  occ. eigenvalues --   -0.18618  -0.17746
 Alpha virt. eigenvalues --    0.02627   0.04338   0.04652   0.05276   0.06372
 Alpha virt. eigenvalues --    0.07252   0.07536   0.09512   0.09720   0.10152
 Alpha virt. eigenvalues --    0.10228   0.11404   0.14071   0.14345   0.14999

 Mulliken charges:
               1
     1  C   -0.010261
     2  O   -0.685773
     3  C   -0.634282
     4  H    0.208471
     5  H    0.219387
     6  H    0.219308
     7  Cl   0.038322
     8  C    0.340450
     9  N   -0.695623
 Sum of Mulliken charges =  -1.00000

 Dipole moment (field-independent basis, Debye):
    X=             -3.2467    Y=              0.3788    Z=             -4.7918  Tot=              5.8005
 Quadrupole moment (field-independent basis, Debye-Ang):
   XX=            -60.4225   YY=            -48.2121   ZZ=            -54.6919
   XY=              3.3896   XZ=              1.9809   YZ=             -4.4371

 Normal termination of Gaussian 16 at Tue Jan  7 22:58:25 2020.
