 Gaussian 16, Revision A.03,
 Gaussian 16:  AS64L-G16RevA.03 25-Dec-2016

 ----------------------------------------------------------------------
 #p opt=modredundant b3lyp/6-31+g(d) scrf=(smd, solvent=tetrahydrofuran
 )
 ----------------------------------------------------------------------

 -----
 title
 -----
 Symbolic Z-matrix:
 Charge = -1 Multiplicity = 1

 SCF Done:  E(RB3LYP) =  -706.391410899     A.U. after   14 cycles
 SCF Done:  E(RB3LYP) =  -706.423596661     A.U. after   13 cycles
 SCF Done:  E(RB3LYP) =  -706.446655663     A.U. after   13 cycles
 SCF Done:  E(RB3LYP) =  -706.450105554     A.U. after   12 cycles
 SCF Done:  E(RB3LYP) =  -706.450587869     A.U. after   11 cycles
 SCF Done:  E(RB3LYP) =  -706.450704978     A.U. after   10 cycles
 SCF Done:  E(RB3LYP) =  -706.450797306     A.U. after   11 cycles
 SCF Done:  E(RB3LYP) =  -706.450870854     A.U. after   11 cycles
 SCF Done:  E(RB3LYP) =  -706.450849094     A.U. after   11 cycles
 SCF Done:  E(RB3LYP) =  -706.450870938     A.U. after   10 cycles
 SCF Done:  E(RB3LYP) =  -706.450869811     A.U. after    9 cycles
 SCF Done:  E(RB3LYP) =  -706.450873775     A.U. after   10 cycles
 SCF Done:  E(RB3LYP) =  -706.450870467     A.U. after    9 cycles
 SCF Done:  E(RB3LYP) =  -706.450870294     A.U. after    8 cycles
 SCF Done:  E(RB3LYP) =  -706.450869783     A.U. after    8 cycles
 Optimization completed.
    -- Stationary point found.

                         Standard orientation:
 ---------------------------------------------------------------------
 Center     Atomic      Atomic             Coordinates (Angstroms)
 Number     Number       Type             X           Y           Z
 ---------------------------------------------------------------------
      1          6           0       -0.921364   -0.567700    0.183293
      2          8           0       -1.076189   -0.971381    1.308010
      3          6           0       -0.716684   -1.362843   -1.063117
      4          1           0        0.036138   -0.890775   -1.697968
      5          1           0       -0.417145   -2.381959   -0.806542
      6          1           0       -1.669569   -1.386389   -1.611884
      7         17           0        2.185217    0.189036    0.054826
      8          6           0       -1.131955    0.997647   -0.072327
      9          7           0       -1.409798    2.116275   -0.223832
 ---------------------------------------------------------------------

 The electronic state is 1-A.
 Alpha  occ. eigenvalues -- -101.41262 -19.17260 -14.34736 -10.32722 -10.23735
 Alpha  occ. eigenvalues --  -10.18652  -9.32591  -7.08394  -7.08362  -7.08359
 Alpha  occ. eigenvalues --   -1.07338  -0.90824  -0.75789  -0.66480  -0.61915
 Alpha  occ. eigenvalues --   -0.49571  -0.45354  -0.44867  -0.40249  -0.37917
 Alpha  occ. eigenvalues --   -0.37504  -0.34279  -0.34100  -0.28461  -0.21138
 Alpha  occ. eigenvalues --   -0.21043  -0.21037
 Alpha virt. eigenvalues --   -0.05633   0.02166   0.02605   0.03886   0.05521
 Alpha virt. eigenvalues --    0.06580   0.07169   0.08683   0.09388   0.10033
 Alpha virt. eigenvalues --    0.10398   0.10616   0.11725   0.13287   0.13374

 Mulliken charges:
               1
     1  C    0.482643
     2  O   -0.359625
     3  C   -0.726885
     4  H    0.273850
     5  H    0.252798
     6  H    0.263012
     7  Cl  -0.934316
     8  C    0.293425
     9  N   -0.544902
 Sum of Mulliken charges =  -1.00000

 Dipole moment (field-independent basis, Debye):
    X=             -8.3822    Y=             -4.6913    Z=             -3.1169  Tot=             10.0987
 Quadrupole moment (field-independent basis, Debye-Ang):
   XX=            -71.1158   YY=            -54.9996   ZZ=            -48.0424
   XY=              3.2773   XZ=              2.0738   YZ=              4.8580

 Normal termination of Gaussian 16 at Wed Jan  8 02:53:04 2020.
