 Gaussian 16, Revision A.03,
 Gaussian 16:  AS64L-G16RevA.03 25-Dec-2016

 ----------------------------------------------------------------------
 #p opt=modredundant b3lyp/6-31+g(d) scrf=(smd, solvent=tetrahydrofuran
 )
 ----------------------------------------------------------------------

 -----
 title
 -----
 Symbolic Z-matrix:
 Charge = -1 Multiplicity = 1

 SCF Done:  E(RB3LYP) =  -706.388370934     A.U. after   14 cycles
 SCF Done:  E(RB3LYP) =  -706.419486653     A.U. after   13 cycles
 SCF Done:  E(RB3LYP) =  -706.438771795     A.U. after   13 cycles
 SCF Done:  E(RB3LYP) =  -706.442277201     A.U. after   12 cycles
 SCF Done:  E(RB3LYP) =  -706.442728877     A.U. after   11 cycles
 SCF Done:  E(RB3LYP) =  -706.442815927     A.U. after   11 cycles
 SCF Done:  E(RB3LYP) =  -706.442834813     A.U. after   10 cycles
 SCF Done:  E(RB3LYP) =  -706.442848774     A.U. after   10 cycles
 SCF Done:  E(RB3LYP) =  -706.442845962     A.U. after   11 cycles
 SCF Done:  E(RB3LYP) =  -706.442832638     A.U. after   11 cycles
 SCF Done:  E(RB3LYP) =  -706.442846773     A.U. after   10 cycles
 SCF Done:  E(RB3LYP) =  -706.442844672     A.U. after   10 cycles
 SCF Done:  E(RB3LYP) =  -706.442843476     A.U. after   10 cycles
 SCF Done:  E(RB3LYP) =  -706.442850833     A.U. after   10 cycles
 SCF Done:  E(RB3LYP) =  -706.442844963     A.U. after   10 cycles
 SCF Done:  E(RB3LYP) =  -706.442850536     A.U. after   10 cycles
 SCF Done:  E(RB3LYP) =  -706.442845890     A.U. after   10 cycles
 SCF Done:  E(RB3LYP) =  -706.442850410     A.U. after   10 cycles
 SCF Done:  E(RB3LYP) =  -706.442850775     A.U. after    9 cycles
 SCF Done:  E(RB3LYP) =  -706.442849980     A.U. after    8 cycles
 Optimization completed.
    -- Stationary point found.

                         Standard orientation:
 ---------------------------------------------------------------------
 Center     Atomic      Atomic             Coordinates (Angstroms)
 Number     Number       Type             X           Y           Z
 ---------------------------------------------------------------------
      1          6           0       -0.772171   -0.659832    0.200020
      2          8           0       -0.864215   -1.068962    1.320061
      3          6           0       -0.590921   -1.407042   -1.076774
      4          1           0       -0.042806   -0.812080   -1.807669
      5          1           0       -0.073922   -2.349932   -0.881385
      6          1           0       -1.595122   -1.619402   -1.473502
      7         17           0        2.056518    0.325507    0.033816
      8          6           0       -1.182732    0.969083   -0.060892
      9          7           0       -1.580042    2.055175   -0.192419
 ---------------------------------------------------------------------

 The electronic state is 1-A.
 Alpha  occ. eigenvalues -- -101.41499 -19.17417 -14.33712 -10.33149 -10.22862
 Alpha  occ. eigenvalues --  -10.18877  -9.32843  -7.08660  -7.08604  -7.08600
 Alpha  occ. eigenvalues --   -1.07737  -0.89786  -0.75585  -0.66789  -0.59370
 Alpha  occ. eigenvalues --   -0.49460  -0.45332  -0.44795  -0.40130  -0.37476
 Alpha  occ. eigenvalues --   -0.37377  -0.33554  -0.33437  -0.28547  -0.21401
 Alpha  occ. eigenvalues --   -0.21248  -0.21240
 Alpha virt. eigenvalues --   -0.04453   0.02168   0.03255   0.03346   0.05403
 Alpha virt. eigenvalues --    0.06613   0.06864   0.08517   0.09534   0.09851
 Alpha virt. eigenvalues --    0.10450   0.10615   0.10926   0.13214   0.13429

 Mulliken charges:
               1
     1  C    0.460223
     2  O   -0.332167
     3  C   -0.713017
     4  H    0.270061
     5  H    0.258083
     6  H    0.265640
     7  Cl  -0.901894
     8  C    0.257470
     9  N   -0.564400
 Sum of Mulliken charges =  -1.00000

 Dipole moment (field-independent basis, Debye):
    X=             -7.0500    Y=             -5.7335    Z=             -2.9671  Tot=              9.5592
 Quadrupole moment (field-independent basis, Debye-Ang):
   XX=            -69.4960   YY=            -55.1937   ZZ=            -47.8968
   XY=              3.5830   XZ=              1.5729   YZ=              5.0215

 Normal termination of Gaussian 16 at Wed Jan  8 02:40:07 2020.
