 Gaussian 16, Revision A.03,
 Gaussian 16:  AS64L-G16RevA.03 25-Dec-2016

 ----------------------------------------------------------------------
 #p opt=modredundant b3lyp/6-31+g(d) scrf=(smd, solvent=tetrahydrofuran
 )
 ----------------------------------------------------------------------

 -----
 title
 -----
 Symbolic Z-matrix:
 Charge = -1 Multiplicity = 1

 SCF Done:  E(RB3LYP) =  -706.410580435     A.U. after   14 cycles
 SCF Done:  E(RB3LYP) =  -706.430943942     A.U. after   13 cycles
 SCF Done:  E(RB3LYP) =  -706.437965521     A.U. after   13 cycles
 SCF Done:  E(RB3LYP) =  -706.438505692     A.U. after   12 cycles
 SCF Done:  E(RB3LYP) =  -706.438565105     A.U. after   11 cycles
 SCF Done:  E(RB3LYP) =  -706.438576413     A.U. after   10 cycles
 SCF Done:  E(RB3LYP) =  -706.438577567     A.U. after    9 cycles
 Optimization completed.
    -- Stationary point found.

                         Standard orientation:
 ---------------------------------------------------------------------
 Center     Atomic      Atomic             Coordinates (Angstroms)
 Number     Number       Type             X           Y           Z
 ---------------------------------------------------------------------
      1          6           0        0.390363    0.520800    0.199289
      2          8           0        0.480608    0.986293    1.355107
      3          6           0        0.210422    1.455388   -0.994465
      4          1           0       -0.014467    0.923569   -1.922065
      5          1           0       -0.587885    2.168471   -0.773785
      6          1           0        1.151574    2.009878   -1.121352
      7         17           0       -1.611749   -0.592934   -0.003554
      8          6           0        1.106337   -0.652507   -0.066665
      9          7           0        1.823273   -1.550640   -0.256028
 ---------------------------------------------------------------------

 The electronic state is 1-A.
 Alpha  occ. eigenvalues -- -101.44421 -19.10798 -14.33233 -10.28241 -10.22205
 Alpha  occ. eigenvalues --  -10.16709  -9.35971  -7.11956  -7.11620  -7.11601
 Alpha  occ. eigenvalues --   -1.00795  -0.89795  -0.74813  -0.69906  -0.64284
 Alpha  occ. eigenvalues --   -0.46115  -0.42945  -0.42011  -0.38142  -0.36505
 Alpha  occ. eigenvalues --   -0.36193  -0.32535  -0.31427  -0.24080  -0.24028
 Alpha  occ. eigenvalues --   -0.23342  -0.22800
 Alpha virt. eigenvalues --   -0.03089   0.02612   0.03433   0.04834   0.05871
 Alpha virt. eigenvalues --    0.07119   0.07952   0.08980   0.09681   0.10397
 Alpha virt. eigenvalues --    0.10642   0.11725   0.13221   0.13823   0.14465

 Mulliken charges:
               1
     1  C    0.045532
     2  O   -0.461918
     3  C   -0.594213
     4  H    0.231289
     5  H    0.243686
     6  H    0.231668
     7  Cl  -0.588004
     8  C    0.513856
     9  N   -0.621896
 Sum of Mulliken charges =  -1.00000

 Dipole moment (field-independent basis, Debye):
    X=              1.7961    Y=              3.8309    Z=             -3.1629  Tot=              5.2826
 Quadrupole moment (field-independent basis, Debye-Ang):
   XX=            -61.1870   YY=            -53.5558   ZZ=            -50.1958
   XY=              2.1767   XZ=             -0.7434   YZ=             -5.3240

 Normal termination of Gaussian 16 at Wed Jan  8 00:56:49 2020.
