 Gaussian 16, Revision A.03,
 Gaussian 16:  AS64L-G16RevA.03 25-Dec-2016

 ----------------------------------------------------------------------
 #p opt=modredundant b3lyp/6-31+g(d) scrf=(smd, solvent=tetrahydrofuran
 )
 ----------------------------------------------------------------------

 -----
 title
 -----
 Symbolic Z-matrix:
 Charge = -1 Multiplicity = 1

 SCF Done:  E(RB3LYP) =  -706.376969598     A.U. after   15 cycles
 SCF Done:  E(RB3LYP) =  -706.406863560     A.U. after   13 cycles
 SCF Done:  E(RB3LYP) =  -706.427659592     A.U. after   15 cycles
 SCF Done:  E(RB3LYP) =  -706.429069817     A.U. after   12 cycles
 SCF Done:  E(RB3LYP) =  -706.429259397     A.U. after   11 cycles
 SCF Done:  E(RB3LYP) =  -706.429357030     A.U. after   12 cycles
 SCF Done:  E(RB3LYP) =  -706.429354287     A.U. after   11 cycles
 SCF Done:  E(RB3LYP) =  -706.429367585     A.U. after   11 cycles
 SCF Done:  E(RB3LYP) =  -706.429375695     A.U. after   10 cycles
 SCF Done:  E(RB3LYP) =  -706.429373892     A.U. after    9 cycles
 SCF Done:  E(RB3LYP) =  -706.429372597     A.U. after    9 cycles
 SCF Done:  E(RB3LYP) =  -706.429372269     A.U. after    9 cycles
 SCF Done:  E(RB3LYP) =  -706.429372597     A.U. after    9 cycles
 Optimization completed.
    -- Stationary point found.

                         Standard orientation:
 ---------------------------------------------------------------------
 Center     Atomic      Atomic             Coordinates (Angstroms)
 Number     Number       Type             X           Y           Z
 ---------------------------------------------------------------------
      1          6           0       -0.801294   -0.371992    0.175731
      2          8           0       -1.024534   -0.781847    1.325865
      3          6           0       -0.753649   -1.328370   -1.002665
      4          1           0       -0.221230   -0.913161   -1.860415
      5          1           0       -0.286884   -2.264111   -0.686525
      6          1           0       -1.793059   -1.534816   -1.298749
      7         17           0        1.955793    0.097993    0.043134
      8          6           0       -0.893166    0.901005   -0.071329
      9          7           0       -1.151769    2.013875   -0.300705
 ---------------------------------------------------------------------

 The electronic state is 1-A.
 Alpha  occ. eigenvalues -- -101.42258 -19.14368 -14.34910 -10.28667 -10.22907
 Alpha  occ. eigenvalues --  -10.17480  -9.33640  -7.09504  -7.09370  -7.09368
 Alpha  occ. eigenvalues --   -1.03970  -0.91311  -0.76442  -0.67836  -0.67418
 Alpha  occ. eigenvalues --   -0.47742  -0.44580  -0.44429  -0.39113  -0.37828
 Alpha  occ. eigenvalues --   -0.37248  -0.33422  -0.32268  -0.25997  -0.22107
 Alpha  occ. eigenvalues --   -0.21888  -0.21850
 Alpha virt. eigenvalues --   -0.07144   0.01983   0.02585   0.04804   0.05894
 Alpha virt. eigenvalues --    0.06900   0.08674   0.09035   0.09454   0.10419
 Alpha virt. eigenvalues --    0.10683   0.11938   0.13044   0.13614   0.14223

 Mulliken charges:
               1
     1  C    0.181508
     2  O   -0.423363
     3  C   -0.625336
     4  H    0.245733
     5  H    0.251967
     6  H    0.247208
     7  Cl  -0.822653
     8  C    0.498257
     9  N   -0.553321
 Sum of Mulliken charges =  -1.00000

 Dipole moment (field-independent basis, Debye):
    X=             -6.3440    Y=             -3.2841    Z=             -3.0122  Tot=              7.7527
 Quadrupole moment (field-independent basis, Debye-Ang):
   XX=            -64.4536   YY=            -53.9758   ZZ=            -49.1689
   XY=              2.6021   XZ=              2.4891   YZ=              4.5976

 Normal termination of Gaussian 16 at Wed Jan  8 01:55:26 2020.
