 Gaussian 16, Revision A.03,
 Gaussian 16:  AS64L-G16RevA.03 25-Dec-2016

 ----------------------------------------------------------------------
 #p opt=modredundant b3lyp/6-31+g(d) scrf=(smd, solvent=tetrahydrofuran
 )
 ----------------------------------------------------------------------

 -----
 title
 -----
 Symbolic Z-matrix:
 Charge = -1 Multiplicity = 1

 SCF Done:  E(RB3LYP) =  -706.327701227     A.U. after   15 cycles
 SCF Done:  E(RB3LYP) =  -706.367599491     A.U. after   13 cycles
 SCF Done:  E(RB3LYP) =  -706.381987033     A.U. after   12 cycles
 SCF Done:  E(RB3LYP) =  -706.389282309     A.U. after   12 cycles
 SCF Done:  E(RB3LYP) =  -706.391241696     A.U. after   11 cycles
 SCF Done:  E(RB3LYP) =  -706.391374337     A.U. after   11 cycles
 SCF Done:  E(RB3LYP) =  -706.391225058     A.U. after   11 cycles
 SCF Done:  E(RB3LYP) =  -706.391522371     A.U. after   10 cycles
 SCF Done:  E(RB3LYP) =  -706.391595918     A.U. after   10 cycles
 SCF Done:  E(RB3LYP) =  -706.391680974     A.U. after   10 cycles
 SCF Done:  E(RB3LYP) =  -706.391715914     A.U. after   10 cycles
 SCF Done:  E(RB3LYP) =  -706.391731943     A.U. after    9 cycles
 SCF Done:  E(RB3LYP) =  -706.391732566     A.U. after    9 cycles
 SCF Done:  E(RB3LYP) =  -706.391733911     A.U. after    9 cycles
 SCF Done:  E(RB3LYP) =  -706.391734212     A.U. after    9 cycles
 Optimization completed.
    -- Stationary point found.

                         Standard orientation:
 ---------------------------------------------------------------------
 Center     Atomic      Atomic             Coordinates (Angstroms)
 Number     Number       Type             X           Y           Z
 ---------------------------------------------------------------------
      1          6           0        0.043850    0.928948    0.229440
      2          8           0        0.016300    1.127157    1.350273
      3          6           0        0.040756    1.186001   -1.195294
      4          1           0        0.077078    0.250262   -1.750179
      5          1           0       -0.882129    1.735881   -1.417970
      6          1           0        0.930234    1.794194   -1.404906
      7         17           0       -2.229341   -0.854516   -0.019274
      8          6           0        2.305090   -0.531664    0.021093
      9          7           0        3.329291   -1.110077   -0.033271
 ---------------------------------------------------------------------

 The electronic state is 1-A.
 Alpha  occ. eigenvalues -- -101.43032 -19.28234 -14.27461 -10.39748 -10.23920
 Alpha  occ. eigenvalues --  -10.14283  -9.34368  -7.10239  -7.10106  -7.10097
 Alpha  occ. eigenvalues --   -1.18803  -0.83101  -0.81264  -0.68259  -0.58734
 Alpha  occ. eigenvalues --   -0.51941  -0.51580  -0.51029  -0.43411  -0.43138
 Alpha  occ. eigenvalues --   -0.36470  -0.27957  -0.27940  -0.25331  -0.23120
 Alpha  occ. eigenvalues --   -0.22567  -0.22524
 Alpha virt. eigenvalues --   -0.07184  -0.05168   0.01991   0.04613   0.04812
 Alpha virt. eigenvalues --    0.05065   0.07219   0.07567   0.08543   0.09617
 Alpha virt. eigenvalues --    0.09856   0.10833   0.11124   0.12379   0.13191

 Mulliken charges:
               1
     1  C    0.626031
     2  O   -0.155875
     3  C   -0.670109
     4  H    0.344458
     5  H    0.314275
     6  H    0.315715
     7  Cl  -0.845727
     8  C   -0.276019
     9  N   -0.652749
 Sum of Mulliken charges =  -1.00000

 Dipole moment (field-independent basis, Debye):
    X=             -2.4097    Y=             10.7590    Z=             -2.8613  Tot=             11.3908
 Quadrupole moment (field-independent basis, Debye-Ang):
   XX=           -104.5742   YY=            -48.9298   ZZ=            -43.9076
   XY=              4.1055   XZ=              0.0138   YZ=             -3.7575

 Normal termination of Gaussian 16 at Wed Jan  8 02:22:46 2020.
