 Gaussian 16, Revision A.03,
 Gaussian 16:  AS64L-G16RevA.03 25-Dec-2016

 ----------------------------------------------------------------------
 #p opt=modredundant b3lyp/6-31+g(d) scrf=(smd, solvent=tetrahydrofuran
 )
 ----------------------------------------------------------------------

 -----
 title
 -----
 Symbolic Z-matrix:
 Charge = -1 Multiplicity = 1

 SCF Done:  E(RB3LYP) =  -706.382428915     A.U. after   14 cycles
 SCF Done:  E(RB3LYP) =  -706.407832047     A.U. after   12 cycles
 SCF Done:  E(RB3LYP) =  -706.412724025     A.U. after   12 cycles
 SCF Done:  E(RB3LYP) =  -706.413384258     A.U. after   12 cycles
 SCF Done:  E(RB3LYP) =  -706.413478711     A.U. after   10 cycles
 SCF Done:  E(RB3LYP) =  -706.413484869     A.U. after   10 cycles
 SCF Done:  E(RB3LYP) =  -706.413488560     A.U. after   10 cycles
 SCF Done:  E(RB3LYP) =  -706.413490767     A.U. after   10 cycles
 SCF Done:  E(RB3LYP) =  -706.413495017     A.U. after   10 cycles
 SCF Done:  E(RB3LYP) =  -706.413500073     A.U. after   10 cycles
 SCF Done:  E(RB3LYP) =  -706.413529959     A.U. after   11 cycles
 SCF Done:  E(RB3LYP) =  -706.413530244     A.U. after   10 cycles
 SCF Done:  E(RB3LYP) =  -706.413519426     A.U. after   11 cycles
 SCF Done:  E(RB3LYP) =  -706.413527852     A.U. after   10 cycles
 SCF Done:  E(RB3LYP) =  -706.413531538     A.U. after   11 cycles
 SCF Done:  E(RB3LYP) =  -706.413546425     A.U. after   11 cycles
 SCF Done:  E(RB3LYP) =  -706.413548482     A.U. after   11 cycles
 SCF Done:  E(RB3LYP) =  -706.413556114     A.U. after   10 cycles
 SCF Done:  E(RB3LYP) =  -706.413555825     A.U. after   10 cycles
 SCF Done:  E(RB3LYP) =  -706.413555326     A.U. after   10 cycles
 Optimization completed.
    -- Stationary point found.

                         Standard orientation:
 ---------------------------------------------------------------------
 Center     Atomic      Atomic             Coordinates (Angstroms)
 Number     Number       Type             X           Y           Z
 ---------------------------------------------------------------------
      1          6           0       -0.495835    0.557420    0.271879
      2          8           0       -0.364520    0.830976    1.421345
      3          6           0       -0.472109    1.455000   -0.926686
      4          1           0       -0.186739    0.917299   -1.829162
      5          1           0       -1.489756    1.852019   -1.050721
      6          1           0        0.218770    2.280187   -0.737773
      7         17           0       -1.340413   -1.092739   -0.144847
      8          6           0        1.931399   -0.237821   -0.214051
      9          7           0        3.054312   -0.538334   -0.011079
 ---------------------------------------------------------------------

 The electronic state is 1-A.
 Alpha  occ. eigenvalues -- -101.51419 -19.16672 -14.26102 -10.32750 -10.18730
 Alpha  occ. eigenvalues --  -10.12538  -9.43053  -7.19312  -7.18565  -7.18504
 Alpha  occ. eigenvalues --   -1.07503  -0.81726  -0.80661  -0.73382  -0.53450
 Alpha  occ. eigenvalues --   -0.46283  -0.45106  -0.44879  -0.38642  -0.37287
 Alpha  occ. eigenvalues --   -0.34991  -0.29638  -0.29342  -0.27506  -0.26655
 Alpha  occ. eigenvalues --   -0.26601  -0.23179
 Alpha virt. eigenvalues --   -0.01766   0.01507   0.03503   0.04950   0.05554
 Alpha virt. eigenvalues --    0.06055   0.08473   0.08774   0.09078   0.09640
 Alpha virt. eigenvalues --    0.10787   0.11268   0.11294   0.13195   0.13612

 Mulliken charges:
               1
     1  C   -0.131094
     2  O   -0.244253
     3  C   -0.483588
     4  H    0.268019
     5  H    0.255518
     6  H    0.259165
     7  Cl  -0.047766
     8  C   -0.215319
     9  N   -0.660682
 Sum of Mulliken charges =  -1.00000

 Dipole moment (field-independent basis, Debye):
    X=             -9.8604    Y=              4.2354    Z=             -2.2885  Tot=             10.9729
 Quadrupole moment (field-independent basis, Debye-Ang):
   XX=            -80.5836   YY=            -46.2194   ZZ=            -48.6306
   XY=              3.0865   XZ=              1.5591   YZ=             -3.4231

 Normal termination of Gaussian 16 at Wed Jan  8 00:18:58 2020.
