 Gaussian 16, Revision A.03,
 Gaussian 16:  AS64L-G16RevA.03 25-Dec-2016

 ----------------------------------------------------------------------
 #p opt=modredundant b3lyp/6-31+g(d) scrf=(smd, solvent=tetrahydrofuran
 )
 ----------------------------------------------------------------------

 -----
 title
 -----
 Symbolic Z-matrix:
 Charge = -1 Multiplicity = 1

 SCF Done:  E(RB3LYP) =  -706.390068911     A.U. after   14 cycles
 SCF Done:  E(RB3LYP) =  -706.405684443     A.U. after   13 cycles
 SCF Done:  E(RB3LYP) =  -706.408252408     A.U. after   13 cycles
 SCF Done:  E(RB3LYP) =  -706.408618717     A.U. after   12 cycles
 SCF Done:  E(RB3LYP) =  -706.408684998     A.U. after   12 cycles
 SCF Done:  E(RB3LYP) =  -706.408698406     A.U. after   10 cycles
 SCF Done:  E(RB3LYP) =  -706.408698757     A.U. after    9 cycles
 Optimization completed.
    -- Stationary point found.

                         Standard orientation:
 ---------------------------------------------------------------------
 Center     Atomic      Atomic             Coordinates (Angstroms)
 Number     Number       Type             X           Y           Z
 ---------------------------------------------------------------------
      1          6           0        0.278991    0.435874    0.198559
      2          8           0        0.357954    0.912042    1.382943
      3          6           0        0.103907    1.451176   -0.954609
      4          1           0       -0.061027    0.975934   -1.926260
      5          1           0       -0.739536    2.104359   -0.715897
      6          1           0        1.018275    2.057696   -1.004338
      7         17           0       -1.497865   -0.659243   -0.032756
      8          6           0        1.100235   -0.536890   -0.064668
      9          7           0        1.926223   -1.332595   -0.276556
 ---------------------------------------------------------------------

 The electronic state is 1-A.
 Alpha  occ. eigenvalues -- -101.46185 -19.08402 -14.32647 -10.26472 -10.21282
 Alpha  occ. eigenvalues --  -10.16294  -9.37841  -7.13926  -7.13426  -7.13401
 Alpha  occ. eigenvalues --   -0.98564  -0.89301  -0.76538  -0.70868  -0.65614
 Alpha  occ. eigenvalues --   -0.45350  -0.43214  -0.41448  -0.37417  -0.36478
 Alpha  occ. eigenvalues --   -0.35942  -0.31477  -0.30882  -0.25432  -0.25071
 Alpha  occ. eigenvalues --   -0.22527  -0.21572
 Alpha virt. eigenvalues --   -0.02333   0.02671   0.03560   0.05057   0.05939
 Alpha virt. eigenvalues --    0.07248   0.08213   0.09270   0.09717   0.10333
 Alpha virt. eigenvalues --    0.10657   0.11801   0.13726   0.13933   0.14578

 Mulliken charges:
               1
     1  C   -0.123531
     2  O   -0.529474
     3  C   -0.572342
     4  H    0.223400
     5  H    0.237133
     6  H    0.223878
     7  Cl  -0.415812
     8  C    0.611563
     9  N   -0.654815
 Sum of Mulliken charges =  -1.00000

 Dipole moment (field-independent basis, Debye):
    X=              0.0162    Y=              2.9265    Z=             -3.4363  Tot=              4.5137
 Quadrupole moment (field-independent basis, Debye-Ang):
   XX=            -59.5724   YY=            -52.4638   ZZ=            -51.2678
   XY=              2.5817   XZ=             -0.3915   YZ=             -5.4203

 Normal termination of Gaussian 16 at Wed Jan  8 00:29:59 2020.
