 Gaussian 16, Revision A.03,
 Gaussian 16:  AS64L-G16RevA.03 25-Dec-2016

 ----------------------------------------------------------------------
 #p opt=modredundant b3lyp/6-31+g(d) scrf=(smd, solvent=tetrahydrofuran
 )
 ----------------------------------------------------------------------

 -----
 title
 -----
 Symbolic Z-matrix:
 Charge = -1 Multiplicity = 1

 SCF Done:  E(RB3LYP) =  -706.371801335     A.U. after   14 cycles
 SCF Done:  E(RB3LYP) =  -706.402535575     A.U. after   13 cycles
 SCF Done:  E(RB3LYP) =  -706.413367329     A.U. after   13 cycles
 SCF Done:  E(RB3LYP) =  -706.416554759     A.U. after   12 cycles
 SCF Done:  E(RB3LYP) =  -706.416821778     A.U. after   11 cycles
 SCF Done:  E(RB3LYP) =  -706.416853011     A.U. after   10 cycles
 SCF Done:  E(RB3LYP) =  -706.416878519     A.U. after   10 cycles
 SCF Done:  E(RB3LYP) =  -706.416885508     A.U. after   10 cycles
 SCF Done:  E(RB3LYP) =  -706.416886028     A.U. after    8 cycles
 Optimization completed.
    -- Stationary point found.

                         Standard orientation:
 ---------------------------------------------------------------------
 Center     Atomic      Atomic             Coordinates (Angstroms)
 Number     Number       Type             X           Y           Z
 ---------------------------------------------------------------------
      1          6           0        0.276957    0.852148    0.232983
      2          8           0        0.192707    1.232247    1.340643
      3          6           0        0.062768    1.437886   -1.113146
      4          1           0       -0.044093    0.662390   -1.868121
      5          1           0       -0.824817    2.076663   -1.083565
      6          1           0        0.951399    2.046958   -1.332561
      7         17           0       -1.792221   -0.864745   -0.013555
      8          6           0        1.612824   -0.614006   -0.023631
      9          7           0        2.446903   -1.428500   -0.112527
 ---------------------------------------------------------------------

 The electronic state is 1-A.
 Alpha  occ. eigenvalues -- -101.42478 -19.19403 -14.31112 -10.34496 -10.19964
 Alpha  occ. eigenvalues --  -10.19565  -9.33858  -7.09730  -7.09586  -7.09580
 Alpha  occ. eigenvalues --   -1.10066  -0.87020  -0.76223  -0.67893  -0.55162
 Alpha  occ. eigenvalues --   -0.48904  -0.46432  -0.45652  -0.39918  -0.38558
 Alpha  occ. eigenvalues --   -0.36923  -0.31343  -0.31225  -0.28476  -0.22441
 Alpha  occ. eigenvalues --   -0.22069  -0.22046
 Alpha virt. eigenvalues --   -0.03460  -0.00047   0.02657   0.04643   0.05061
 Alpha virt. eigenvalues --    0.06135   0.06736   0.07667   0.08976   0.09891
 Alpha virt. eigenvalues --    0.10226   0.10410   0.10816   0.12851   0.13570

 Mulliken charges:
               1
     1  C    0.457274
     2  O   -0.244811
     3  C   -0.657454
     4  H    0.281458
     5  H    0.268964
     6  H    0.271942
     7  Cl  -0.811285
     8  C    0.045172
     9  N   -0.611260
 Sum of Mulliken charges =  -1.00000

 Dipole moment (field-independent basis, Debye):
    X=              1.9661    Y=              8.3227    Z=             -2.6517  Tot=              8.9534
 Quadrupole moment (field-independent basis, Debye-Ang):
   XX=            -74.1904   YY=            -52.7946   ZZ=            -46.9097
   XY=              2.6238   XZ=              0.3242   YZ=             -4.8424

 Normal termination of Gaussian 16 at Wed Jan  8 01:46:29 2020.
