 Gaussian 16, Revision A.03,
 Gaussian 16:  AS64L-G16RevA.03 25-Dec-2016

 ----------------------------------------------------------------------
 #p opt=modredundant b3lyp/6-31+g(d) scrf=(smd, solvent=tetrahydrofuran
 )
 ----------------------------------------------------------------------

 -----
 title
 -----
 Symbolic Z-matrix:
 Charge = -1 Multiplicity = 1

 SCF Done:  E(RB3LYP) =  -706.320168308     A.U. after   15 cycles
 SCF Done:  E(RB3LYP) =  -706.354583439     A.U. after   14 cycles
 SCF Done:  E(RB3LYP) =  -706.382199667     A.U. after   15 cycles
 SCF Done:  E(RB3LYP) =  -706.384321557     A.U. after   12 cycles
 SCF Done:  E(RB3LYP) =  -706.384519414     A.U. after   12 cycles
 SCF Done:  E(RB3LYP) =  -706.384453990     A.U. after   12 cycles
 SCF Done:  E(RB3LYP) =  -706.384617612     A.U. after   12 cycles
 SCF Done:  E(RB3LYP) =  -706.384654584     A.U. after   11 cycles
 SCF Done:  E(RB3LYP) =  -706.384715155     A.U. after   12 cycles
 SCF Done:  E(RB3LYP) =  -706.384743274     A.U. after   11 cycles
 SCF Done:  E(RB3LYP) =  -706.384747075     A.U. after   10 cycles
 SCF Done:  E(RB3LYP) =  -706.384747384     A.U. after   10 cycles
 SCF Done:  E(RB3LYP) =  -706.384740319     A.U. after   10 cycles
 Optimization completed.
    -- Stationary point found.

                         Standard orientation:
 ---------------------------------------------------------------------
 Center     Atomic      Atomic             Coordinates (Angstroms)
 Number     Number       Type             X           Y           Z
 ---------------------------------------------------------------------
      1          6           0       -0.987743   -0.305347    0.158254
      2          8           0       -1.229175   -0.721396    1.310879
      3          6           0       -0.858737   -1.286457   -0.999028
      4          1           0       -0.255902   -0.887759   -1.817685
      5          1           0       -0.423355   -2.216433   -0.626352
      6          1           0       -1.871669   -1.491155   -1.375203
      7         17           0        2.192395    0.038001    0.064264
      8          6           0       -0.997975    0.872124   -0.072957
      9          7           0       -1.117094    2.005511   -0.325413
 ---------------------------------------------------------------------

 The electronic state is 1-A.
 Alpha  occ. eigenvalues -- -101.41395 -19.15843 -14.36550 -10.28336 -10.23163
 Alpha  occ. eigenvalues --  -10.17971  -9.32722  -7.08536  -7.08486  -7.08485
 Alpha  occ. eigenvalues --   -1.05164  -0.92684  -0.79004  -0.69571  -0.66583
 Alpha  occ. eigenvalues --   -0.48455  -0.46258  -0.46051  -0.39761  -0.38789
 Alpha  occ. eigenvalues --   -0.38167  -0.33862  -0.32762  -0.26936  -0.21250
 Alpha  occ. eigenvalues --   -0.21134  -0.21117
 Alpha virt. eigenvalues --   -0.09802   0.00792   0.02362   0.04780   0.05861
 Alpha virt. eigenvalues --    0.06744   0.08899   0.09235   0.09351   0.10385
 Alpha virt. eigenvalues --    0.10664   0.12232   0.13082   0.13502   0.14118

 Mulliken charges:
               1
     1  C    0.284693
     2  O   -0.426940
     3  C   -0.632220
     4  H    0.251633
     5  H    0.256394
     6  H    0.254918
     7  Cl  -0.918590
     8  C    0.454568
     9  N   -0.524456
 Sum of Mulliken charges =  -1.00000

 Dipole moment (field-independent basis, Debye):
    X=             -8.7044    Y=             -2.7798    Z=             -3.1031  Tot=              9.6500
 Quadrupole moment (field-independent basis, Debye-Ang):
   XX=            -69.5393   YY=            -52.7565   ZZ=            -48.8332
   XY=              2.2824   XZ=              2.8169   YZ=              4.3246

 Normal termination of Gaussian 16 at Wed Jan  8 02:49:56 2020.
