 Gaussian 16, Revision A.03,
 Gaussian 16:  AS64L-G16RevA.03 25-Dec-2016

 ----------------------------------------------------------------------
 #p opt=modredundant b3lyp/6-31+g(d) scrf=(smd, solvent=tetrahydrofuran
 )
 ----------------------------------------------------------------------

 -----
 title
 -----
 Symbolic Z-matrix:
 Charge = -1 Multiplicity = 1

 SCF Done:  E(RB3LYP) =  -706.317385296     A.U. after   16 cycles
 SCF Done:  E(RB3LYP) =  -706.358992916     A.U. after   13 cycles
 SCF Done:  E(RB3LYP) =  -706.375459738     A.U. after   12 cycles
 SCF Done:  E(RB3LYP) =  -706.384663018     A.U. after   12 cycles
 SCF Done:  E(RB3LYP) =  -706.387957244     A.U. after   11 cycles
 SCF Done:  E(RB3LYP) =  -706.388217117     A.U. after   11 cycles
 SCF Done:  E(RB3LYP) =  -706.388247065     A.U. after   11 cycles
 SCF Done:  E(RB3LYP) =  -706.388615933     A.U. after   11 cycles
 SCF Done:  E(RB3LYP) =  -706.388938733     A.U. after   11 cycles
 SCF Done:  E(RB3LYP) =  -706.388999037     A.U. after   11 cycles
 SCF Done:  E(RB3LYP) =  -706.389160930     A.U. after    9 cycles
 SCF Done:  E(RB3LYP) =  -706.389169928     A.U. after   10 cycles
 SCF Done:  E(RB3LYP) =  -706.389159895     A.U. after   10 cycles
 SCF Done:  E(RB3LYP) =  -706.389158989     A.U. after    9 cycles
 SCF Done:  E(RB3LYP) =  -706.389169830     A.U. after   10 cycles
 SCF Done:  E(RB3LYP) =  -706.389158802     A.U. after   10 cycles
 SCF Done:  E(RB3LYP) =  -706.389143063     A.U. after   10 cycles
 SCF Done:  E(RB3LYP) =  -706.389159211     A.U. after   10 cycles
 SCF Done:  E(RB3LYP) =  -706.389160861     A.U. after    9 cycles
 SCF Done:  E(RB3LYP) =  -706.389161049     A.U. after    8 cycles
 Optimization completed.
    -- Stationary point found.

                         Standard orientation:
 ---------------------------------------------------------------------
 Center     Atomic      Atomic             Coordinates (Angstroms)
 Number     Number       Type             X           Y           Z
 ---------------------------------------------------------------------
      1          6           0        0.040970    0.824777    0.221658
      2          8           0        0.051902    0.946467    1.348078
      3          6           0        0.058375    0.972631   -1.207624
      4          1           0        0.101223   -0.014713   -1.672355
      5          1           0       -0.864082    1.492547   -1.492445
      6          1           0        0.953663    1.555871   -1.457650
      7         17           0       -2.526616   -0.709472   -0.009826
      8          6           0        2.629922   -0.464215    0.007578
      9          7           0        3.710121   -0.934797   -0.017831
 ---------------------------------------------------------------------

 The electronic state is 1-A.
 Alpha  occ. eigenvalues -- -101.42856 -19.30060 -14.27052 -10.40928 -10.24739
 Alpha  occ. eigenvalues --  -10.13677  -9.34190  -7.10039  -7.09939  -7.09930
 Alpha  occ. eigenvalues --   -1.20613  -0.82714  -0.82506  -0.68084  -0.59887
 Alpha  occ. eigenvalues --   -0.53068  -0.52836  -0.52416  -0.44369  -0.44087
 Alpha  occ. eigenvalues --   -0.36187  -0.27601  -0.27584  -0.24796  -0.22964
 Alpha  occ. eigenvalues --   -0.22480  -0.22430
 Alpha virt. eigenvalues --   -0.07501  -0.06396   0.01690   0.04455   0.04658
 Alpha virt. eigenvalues --    0.04885   0.06913   0.07554   0.08432   0.09564
 Alpha virt. eigenvalues --    0.09903   0.10942   0.11183   0.12285   0.12940

 Mulliken charges:
               1
     1  C    0.831888
     2  O   -0.199841
     3  C   -0.742037
     4  H    0.357798
     5  H    0.327299
     6  H    0.325919
     7  Cl  -0.885496
     8  C   -0.361713
     9  N   -0.653816
 Sum of Mulliken charges =  -1.00000

 Dipole moment (field-independent basis, Debye):
    X=             -2.9859    Y=              9.6456    Z=             -2.9935  Tot=             10.5316
 Quadrupole moment (field-independent basis, Debye-Ang):
   XX=           -122.5878   YY=            -47.7661   ZZ=            -43.3971
   XY=              3.9716   XZ=             -0.0892   YZ=             -3.0279

 Normal termination of Gaussian 16 at Wed Jan  8 02:46:33 2020.
