 Gaussian 16, Revision A.03,
 Gaussian 16:  AS64L-G16RevA.03 25-Dec-2016

 ----------------------------------------------------------------------
 #p opt=modredundant b3lyp/6-31+g(d) scrf=(smd, solvent=tetrahydrofuran
 )
 ----------------------------------------------------------------------

 -----
 title
 -----
 Symbolic Z-matrix:
 Charge = -1 Multiplicity = 1

 SCF Done:  E(RB3LYP) =  -706.336945043     A.U. after   14 cycles
 SCF Done:  E(RB3LYP) =  -706.375403001     A.U. after   13 cycles
 SCF Done:  E(RB3LYP) =  -706.387785191     A.U. after   12 cycles
 SCF Done:  E(RB3LYP) =  -706.393273212     A.U. after   11 cycles
 SCF Done:  E(RB3LYP) =  -706.394292327     A.U. after   11 cycles
 SCF Done:  E(RB3LYP) =  -706.394354790     A.U. after   10 cycles
 SCF Done:  E(RB3LYP) =  -706.394389485     A.U. after   10 cycles
 SCF Done:  E(RB3LYP) =  -706.394399167     A.U. after    9 cycles
 SCF Done:  E(RB3LYP) =  -706.394406430     A.U. after   10 cycles
 SCF Done:  E(RB3LYP) =  -706.394411292     A.U. after    9 cycles
 SCF Done:  E(RB3LYP) =  -706.394415073     A.U. after    9 cycles
 SCF Done:  E(RB3LYP) =  -706.394418357     A.U. after    9 cycles
 SCF Done:  E(RB3LYP) =  -706.394420597     A.U. after    9 cycles
 SCF Done:  E(RB3LYP) =  -706.394422561     A.U. after    9 cycles
 SCF Done:  E(RB3LYP) =  -706.394423883     A.U. after    9 cycles
 SCF Done:  E(RB3LYP) =  -706.394423440     A.U. after    8 cycles
 Optimization completed.
    -- Stationary point found.

                         Standard orientation:
 ---------------------------------------------------------------------
 Center     Atomic      Atomic             Coordinates (Angstroms)
 Number     Number       Type             X           Y           Z
 ---------------------------------------------------------------------
      1          6           0       -0.096837    0.942878    0.237645
      2          8           0       -0.087701    1.188455    1.355080
      3          6           0       -0.057261    1.296917   -1.174904
      4          1           0        0.046644    0.409226   -1.793600
      5          1           0       -0.999838    1.813160   -1.396895
      6          1           0        0.800117    1.969331   -1.305971
      7         17           0       -1.978848   -0.974298   -0.031556
      8          6           0        2.172829   -0.501545    0.009045
      9          7           0        3.197530   -1.080828   -0.034062
 ---------------------------------------------------------------------

 The electronic state is 1-A.
 Alpha  occ. eigenvalues -- -101.44239 -19.26615 -14.27173 -10.38622 -10.23181
 Alpha  occ. eigenvalues --  -10.13951  -9.35582  -7.11521  -7.11282  -7.11271
 Alpha  occ. eigenvalues --   -1.17167  -0.82808  -0.80166  -0.69442  -0.57729
 Alpha  occ. eigenvalues --   -0.50904  -0.50433  -0.49831  -0.42543  -0.42260
 Alpha  occ. eigenvalues --   -0.36192  -0.27693  -0.27671  -0.25125  -0.24224
 Alpha  occ. eigenvalues --   -0.23430  -0.23409
 Alpha virt. eigenvalues --   -0.06893  -0.04236   0.02263   0.04707   0.05015
 Alpha virt. eigenvalues --    0.05183   0.07479   0.07834   0.08646   0.09655
 Alpha virt. eigenvalues --    0.09892   0.10957   0.11259   0.12548   0.13268

 Mulliken charges:
               1
     1  C    0.471936
     2  O   -0.138457
     3  C   -0.618232
     4  H    0.330831
     5  H    0.305850
     6  H    0.305473
     7  Cl  -0.748728
     8  C   -0.255270
     9  N   -0.653403
 Sum of Mulliken charges =  -1.00000

 Dipole moment (field-independent basis, Debye):
    X=             -4.2215    Y=             10.5482    Z=             -2.7266  Tot=             11.6841
 Quadrupole moment (field-independent basis, Debye-Ang):
   XX=            -95.6710   YY=            -49.1053   ZZ=            -44.4262
   XY=              3.7444   XZ=              0.3125   YZ=             -4.0641

 Normal termination of Gaussian 16 at Wed Jan  8 03:16:22 2020.
