 Gaussian 16, Revision A.03,
 Gaussian 16:  AS64L-G16RevA.03 25-Dec-2016

 ----------------------------------------------------------------------
 #p opt=modredundant b3lyp/6-31+g(d) scrf=(smd, solvent=tetrahydrofuran
 )
 ----------------------------------------------------------------------

 -----
 title
 -----
 Symbolic Z-matrix:
 Charge = -1 Multiplicity = 1

 SCF Done:  E(RB3LYP) =  -706.362130484     A.U. after   15 cycles
 SCF Done:  E(RB3LYP) =  -706.395999656     A.U. after   13 cycles
 SCF Done:  E(RB3LYP) =  -706.410642179     A.U. after   13 cycles
 SCF Done:  E(RB3LYP) =  -706.416393011     A.U. after   12 cycles
 SCF Done:  E(RB3LYP) =  -706.417173755     A.U. after   11 cycles
 SCF Done:  E(RB3LYP) =  -706.417314496     A.U. after   10 cycles
 SCF Done:  E(RB3LYP) =  -706.417347132     A.U. after   10 cycles
 SCF Done:  E(RB3LYP) =  -706.417348655     A.U. after   10 cycles
 SCF Done:  E(RB3LYP) =  -706.417348641     A.U. after    9 cycles
 SCF Done:  E(RB3LYP) =  -706.417351892     A.U. after    9 cycles
 SCF Done:  E(RB3LYP) =  -706.417358595     A.U. after    9 cycles
 SCF Done:  E(RB3LYP) =  -706.417361569     A.U. after    9 cycles
 SCF Done:  E(RB3LYP) =  -706.417363616     A.U. after    8 cycles
 Optimization completed.
    -- Stationary point found.

                         Standard orientation:
 ---------------------------------------------------------------------
 Center     Atomic      Atomic             Coordinates (Angstroms)
 Number     Number       Type             X           Y           Z
 ---------------------------------------------------------------------
      1          6           0        0.505924    0.883517    0.222562
      2          8           0        0.438802    1.248304    1.331348
      3          6           0        0.258675    1.430230   -1.126806
      4          1           0       -0.040465    0.639413   -1.812232
      5          1           0       -0.509162    2.206573   -1.062044
      6          1           0        1.208475    1.866854   -1.467202
      7         17           0       -2.027628   -0.708612    0.007529
      8          6           0        1.599929   -0.770818   -0.034981
      9          7           0        2.301891   -1.701494   -0.114565
 ---------------------------------------------------------------------

 The electronic state is 1-A.
 Alpha  occ. eigenvalues -- -101.41547 -19.21031 -14.31639 -10.35412 -10.20550
 Alpha  occ. eigenvalues --  -10.20179  -9.32888  -7.08704  -7.08651  -7.08646
 Alpha  occ. eigenvalues --   -1.11633  -0.87517  -0.77091  -0.66820  -0.55999
 Alpha  occ. eigenvalues --   -0.49925  -0.47487  -0.46597  -0.40525  -0.39440
 Alpha  occ. eigenvalues --   -0.37556  -0.31774  -0.31676  -0.29307  -0.21499
 Alpha  occ. eigenvalues --   -0.21303  -0.21289
 Alpha virt. eigenvalues --   -0.04044  -0.01210   0.02485   0.04250   0.04914
 Alpha virt. eigenvalues --    0.05973   0.06558   0.07432   0.08872   0.09769
 Alpha virt. eigenvalues --    0.09997   0.10335   0.10700   0.12793   0.13390

 Mulliken charges:
               1
     1  C    0.573107
     2  O   -0.244225
     3  C   -0.719610
     4  H    0.292893
     5  H    0.272302
     6  H    0.282185
     7  Cl  -0.903695
     8  C    0.041916
     9  N   -0.594875
 Sum of Mulliken charges =  -1.00000

 Dipole moment (field-independent basis, Debye):
    X=              4.5943    Y=              8.8152    Z=             -2.7646  Tot=             10.3179
 Quadrupole moment (field-independent basis, Debye-Ang):
   XX=            -77.0339   YY=            -53.5663   ZZ=            -46.4794
   XY=              3.6929   XZ=             -0.2355   YZ=             -4.8439

 Normal termination of Gaussian 16 at Wed Jan  8 02:28:27 2020.
