 Gaussian 16, Revision A.03,
 Gaussian 16:  AS64L-G16RevA.03 25-Dec-2016

 ----------------------------------------------------------------------
 #p opt=modredundant b3lyp/6-31+g(d) scrf=(smd, solvent=tetrahydrofuran
 )
 ----------------------------------------------------------------------

 -----
 title
 -----
 Symbolic Z-matrix:
 Charge = -1 Multiplicity = 1

 SCF Done:  E(RB3LYP) =  -706.384542837     A.U. after   15 cycles
 SCF Done:  E(RB3LYP) =  -706.410083019     A.U. after   13 cycles
 SCF Done:  E(RB3LYP) =  -706.423448313     A.U. after   14 cycles
 SCF Done:  E(RB3LYP) =  -706.424324706     A.U. after   12 cycles
 SCF Done:  E(RB3LYP) =  -706.424489676     A.U. after   11 cycles
 SCF Done:  E(RB3LYP) =  -706.424543237     A.U. after   11 cycles
 SCF Done:  E(RB3LYP) =  -706.424553693     A.U. after   10 cycles
 SCF Done:  E(RB3LYP) =  -706.424554354     A.U. after    9 cycles
 Optimization completed.
    -- Stationary point found.

                         Standard orientation:
 ---------------------------------------------------------------------
 Center     Atomic      Atomic             Coordinates (Angstroms)
 Number     Number       Type             X           Y           Z
 ---------------------------------------------------------------------
      1          6           0        0.608578    0.428175    0.184165
      2          8           0        0.793660    0.869940    1.337969
      3          6           0        0.511153    1.389581   -0.996772
      4          1           0        0.127256    0.913021   -1.901394
      5          1           0       -0.127820    2.231704   -0.721548
      6          1           0        1.525486    1.765394   -1.195816
      7         17           0       -1.778418   -0.298197    0.027214
      8          6           0        0.949968   -0.800243   -0.069687
      9          7           0        1.420101   -1.843622   -0.293410
 ---------------------------------------------------------------------

 The electronic state is 1-A.
 Alpha  occ. eigenvalues -- -101.43372 -19.12486 -14.33925 -10.27802 -10.22258
 Alpha  occ. eigenvalues --  -10.16993  -9.34844  -7.10772  -7.10531  -7.10521
 Alpha  occ. eigenvalues --   -1.02247  -0.90485  -0.75829  -0.68983  -0.66810
 Alpha  occ. eigenvalues --   -0.46749  -0.43787  -0.43437  -0.38465  -0.37121
 Alpha  occ. eigenvalues --   -0.36808  -0.32660  -0.31361  -0.24682  -0.23111
 Alpha  occ. eigenvalues --   -0.22829  -0.22595
 Alpha virt. eigenvalues --   -0.05574   0.02432   0.02838   0.04893   0.05908
 Alpha virt. eigenvalues --    0.07046   0.08540   0.09074   0.09562   0.10446
 Alpha virt. eigenvalues --    0.10679   0.12065   0.13361   0.13772   0.14395

 Mulliken charges:
               1
     1  C    0.048913
     2  O   -0.447829
     3  C   -0.599334
     4  H    0.236314
     5  H    0.249164
     6  H    0.236982
     7  Cl  -0.698448
     8  C    0.569096
     9  N   -0.594860
 Sum of Mulliken charges =  -1.00000

 Dipole moment (field-independent basis, Debye):
    X=              3.8702    Y=              3.6515    Z=             -3.0426  Tot=              6.1294
 Quadrupole moment (field-independent basis, Debye-Ang):
   XX=            -61.7486   YY=            -53.9463   ZZ=            -49.6694
   XY=              2.3198   XZ=             -1.7796   YZ=             -4.9391

 Normal termination of Gaussian 16 at Wed Jan  8 01:20:36 2020.
