 Gaussian 16, Revision A.03,
 Gaussian 16:  AS64L-G16RevA.03 25-Dec-2016

 ----------------------------------------------------------------------
 #p opt=modredundant b3lyp/6-31+g(d) scrf=(smd, solvent=tetrahydrofuran
 )
 ----------------------------------------------------------------------

 -----
 title
 -----
 Symbolic Z-matrix:
 Charge = -1 Multiplicity = 1

 SCF Done:  E(RB3LYP) =  -706.388498761     A.U. after   14 cycles
 SCF Done:  E(RB3LYP) =  -706.401045435     A.U. after   13 cycles
 SCF Done:  E(RB3LYP) =  -706.402106872     A.U. after   13 cycles
 SCF Done:  E(RB3LYP) =  -706.402325119     A.U. after   12 cycles
 SCF Done:  E(RB3LYP) =  -706.402365940     A.U. after   11 cycles
 SCF Done:  E(RB3LYP) =  -706.402372325     A.U. after   10 cycles
 SCF Done:  E(RB3LYP) =  -706.402372327     A.U. after    9 cycles
 Optimization completed.
    -- Stationary point found.

                         Standard orientation:
 ---------------------------------------------------------------------
 Center     Atomic      Atomic             Coordinates (Angstroms)
 Number     Number       Type             X           Y           Z
 ---------------------------------------------------------------------
      1          6           0        0.205003    0.406136    0.199291
      2          8           0        0.267942    0.881985    1.399277
      3          6           0        0.025186    1.453976   -0.934189
      4          1           0       -0.096508    1.003336   -1.924674
      5          1           0       -0.850394    2.064971   -0.697830
      6          1           0        0.914920    2.096666   -0.939952
      7         17           0       -1.431806   -0.715052   -0.053280
      8          6           0        1.122063   -0.476380   -0.065598
      9          7           0        2.016520   -1.195337   -0.274717
 ---------------------------------------------------------------------

 The electronic state is 1-A.
 Alpha  occ. eigenvalues -- -101.47231 -19.07135 -14.32320 -10.26152 -10.21023
 Alpha  occ. eigenvalues --  -10.16126  -9.38943  -7.15082  -7.14492  -7.14465
 Alpha  occ. eigenvalues --   -0.97472  -0.88937  -0.77508  -0.71027  -0.65307
 Alpha  occ. eigenvalues --   -0.45316  -0.43133  -0.40979  -0.37120  -0.36493
 Alpha  occ. eigenvalues --   -0.35612  -0.31182  -0.31042  -0.26187  -0.25762
 Alpha  occ. eigenvalues --   -0.21865  -0.20671
 Alpha virt. eigenvalues --   -0.01238   0.02696   0.03775   0.05104   0.05967
 Alpha virt. eigenvalues --    0.07286   0.08112   0.09366   0.09759   0.10266
 Alpha virt. eigenvalues --    0.10635   0.11690   0.13832   0.13989   0.14620

 Mulliken charges:
               1
     1  C   -0.139986
     2  O   -0.564201
     3  C   -0.579056
     4  H    0.220355
     5  H    0.233617
     6  H    0.221583
     7  Cl  -0.321442
     8  C    0.598906
     9  N   -0.669775
 Sum of Mulliken charges =  -1.00000

 Dipole moment (field-independent basis, Debye):
    X=             -0.8806    Y=              2.4289    Z=             -3.6584  Tot=              4.4787
 Quadrupole moment (field-independent basis, Debye-Ang):
   XX=            -59.2503   YY=            -51.7993   ZZ=            -51.9133
   XY=              2.8397   XZ=             -0.0453   YZ=             -5.4635

 Normal termination of Gaussian 16 at Wed Jan  8 00:15:07 2020.
