 Gaussian 16, Revision A.03,
 Gaussian 16:  AS64L-G16RevA.03 25-Dec-2016

 ----------------------------------------------------------------------
 #p opt=modredundant b3lyp/6-31+g(d) scrf=(smd, solvent=tetrahydrofuran
 )
 ----------------------------------------------------------------------

 -----
 title
 -----
 Symbolic Z-matrix:
 Charge = -1 Multiplicity = 1

 SCF Done:  E(RB3LYP) =  -706.375916067     A.U. after   14 cycles
 SCF Done:  E(RB3LYP) =  -706.376494176     A.U. after   11 cycles
 SCF Done:  E(RB3LYP) =  -706.376620138     A.U. after   11 cycles
 SCF Done:  E(RB3LYP) =  -706.376625849     A.U. after   10 cycles
 Optimization completed.
    -- Stationary point found.

                         Standard orientation:
 ---------------------------------------------------------------------
 Center     Atomic      Atomic             Coordinates (Angstroms)
 Number     Number       Type             X           Y           Z
 ---------------------------------------------------------------------
      1          6           0       -0.148919    0.276381    0.204118
      2          8           0       -0.205015    0.664432    1.461237
      3          6           0       -0.304199    1.458187   -0.813826
      4          1           0       -0.191667    1.144559   -1.860141
      5          1           0       -1.305366    1.883432   -0.671772
      6          1           0        0.440476    2.226778   -0.583073
      7         17           0       -1.158265   -0.901455   -0.188211
      8          6           0        1.327096   -0.265806   -0.091540
      9          7           0        2.449044   -0.579721   -0.166833
 ---------------------------------------------------------------------

 The electronic state is 1-A.
 Alpha  occ. eigenvalues -- -101.51192 -19.03420 -14.31083 -10.27266 -10.19975
 Alpha  occ. eigenvalues --  -10.15364  -9.43344  -7.19636  -7.18757  -7.18725
 Alpha  occ. eigenvalues --   -0.95664  -0.87369  -0.83687  -0.69327  -0.58152
 Alpha  occ. eigenvalues --   -0.47970  -0.42162  -0.39790  -0.37190  -0.35304
 Alpha  occ. eigenvalues --   -0.35056  -0.31758  -0.30971  -0.28094  -0.27208
 Alpha  occ. eigenvalues --   -0.19259  -0.18211
 Alpha virt. eigenvalues --    0.02539   0.04433   0.04659   0.05493   0.06561
 Alpha virt. eigenvalues --    0.07070   0.07559   0.09408   0.09655   0.10172
 Alpha virt. eigenvalues --    0.10208   0.11322   0.14014   0.14255   0.14994

 Mulliken charges:
               1
     1  C    0.040541
     2  O   -0.655861
     3  C   -0.628458
     4  H    0.208925
     5  H    0.217758
     6  H    0.220323
     7  Cl   0.036071
     8  C    0.247004
     9  N   -0.686303
 Sum of Mulliken charges =  -1.00000

 Dipole moment (field-independent basis, Debye):
    X=             -3.4347    Y=              0.3839    Z=             -4.6057  Tot=              5.7582
 Quadrupole moment (field-independent basis, Debye-Ang):
   XX=            -61.6131   YY=            -48.0934   ZZ=            -54.2273
   XY=              3.3789   XZ=              2.1997   YZ=             -4.2949

 Normal termination of Gaussian 16 at Tue Jan  7 22:59:18 2020.
