 Gaussian 16, Revision A.03,
 Gaussian 16:  AS64L-G16RevA.03 25-Dec-2016

 ----------------------------------------------------------------------
 #p opt=modredundant b3lyp/6-31+g(d) scrf=(smd, solvent=tetrahydrofuran
 )
 ----------------------------------------------------------------------

 -----
 title
 -----
 Symbolic Z-matrix:
 Charge = -1 Multiplicity = 1

 SCF Done:  E(RB3LYP) =  -706.398280181     A.U. after   14 cycles
 SCF Done:  E(RB3LYP) =  -706.408947220     A.U. after   12 cycles
 SCF Done:  E(RB3LYP) =  -706.409923505     A.U. after   12 cycles
 SCF Done:  E(RB3LYP) =  -706.410005843     A.U. after   11 cycles
 SCF Done:  E(RB3LYP) =  -706.410015976     A.U. after   10 cycles
 SCF Done:  E(RB3LYP) =  -706.410022820     A.U. after   10 cycles
 SCF Done:  E(RB3LYP) =  -706.410023543     A.U. after    8 cycles
 SCF Done:  E(RB3LYP) =  -706.410023935     A.U. after    9 cycles
 SCF Done:  E(RB3LYP) =  -706.410023936     A.U. after    9 cycles
 SCF Done:  E(RB3LYP) =  -706.410023838     A.U. after    8 cycles
 Optimization completed.
    -- Stationary point found.

                         Standard orientation:
 ---------------------------------------------------------------------
 Center     Atomic      Atomic             Coordinates (Angstroms)
 Number     Number       Type             X           Y           Z
 ---------------------------------------------------------------------
      1          6           0       -0.241587    0.516461    0.246268
      2          8           0       -0.315735    0.908557    1.397825
      3          6           0       -0.358598    1.428912   -0.961736
      4          1           0       -0.141971    0.907010   -1.895595
      5          1           0       -1.381815    1.824902   -0.993352
      6          1           0        0.340258    2.262349   -0.834243
      7         17           0       -1.233303   -1.060689   -0.126689
      8          6           0        1.579727   -0.243133   -0.079048
      9          7           0        2.685473   -0.634921   -0.076942
 ---------------------------------------------------------------------

 The electronic state is 1-A.
 Alpha  occ. eigenvalues -- -101.49201 -19.10969 -14.28939 -10.30522 -10.17065
 Alpha  occ. eigenvalues --  -10.16546  -9.40900  -7.17120  -7.16405  -7.16386
 Alpha  occ. eigenvalues --   -1.01935  -0.84873  -0.78691  -0.71209  -0.52622
 Alpha  occ. eigenvalues --   -0.45343  -0.43448  -0.41341  -0.37402  -0.36582
 Alpha  occ. eigenvalues --   -0.34218  -0.30046  -0.29220  -0.27553  -0.26961
 Alpha  occ. eigenvalues --   -0.24361  -0.23568
 Alpha virt. eigenvalues --    0.00776   0.02785   0.04390   0.05488   0.06035
 Alpha virt. eigenvalues --    0.07233   0.07802   0.08370   0.09348   0.10005
 Alpha virt. eigenvalues --    0.10457   0.10581   0.12095   0.13418   0.13863

 Mulliken charges:
               1
     1  C    0.083447
     2  O   -0.381770
     3  C   -0.557560
     4  H    0.237688
     5  H    0.234204
     6  H    0.238420
     7  Cl  -0.185769
     8  C    0.010851
     9  N   -0.679511
 Sum of Mulliken charges =  -1.00000

 Dipole moment (field-independent basis, Debye):
    X=             -4.8342    Y=              3.0634    Z=             -3.0471  Tot=              6.4837
 Quadrupole moment (field-independent basis, Debye-Ang):
   XX=            -69.1933   YY=            -48.8187   ZZ=            -50.0636
   XY=              3.0637   XZ=              1.7725   YZ=             -4.3105

 Normal termination of Gaussian 16 at Wed Jan  8 00:03:43 2020.
