 Gaussian 16, Revision A.03,
 Gaussian 16:  AS64L-G16RevA.03 25-Dec-2016

 ----------------------------------------------------------------------
 #p opt=modredundant b3lyp/6-31+g(d) scrf=(smd, solvent=tetrahydrofuran
 )
 ----------------------------------------------------------------------

 -----
 title
 -----
 Symbolic Z-matrix:
 Charge = -1 Multiplicity = 1

 SCF Done:  E(RB3LYP) =  -706.328290880     A.U. after   15 cycles
 SCF Done:  E(RB3LYP) =  -706.367833902     A.U. after   13 cycles
 SCF Done:  E(RB3LYP) =  -706.382871273     A.U. after   13 cycles
 SCF Done:  E(RB3LYP) =  -706.391066617     A.U. after   12 cycles
 SCF Done:  E(RB3LYP) =  -706.393080754     A.U. after   11 cycles
 SCF Done:  E(RB3LYP) =  -706.393566352     A.U. after   11 cycles
 SCF Done:  E(RB3LYP) =  -706.393737140     A.U. after   11 cycles
 SCF Done:  E(RB3LYP) =  -706.393783791     A.U. after   10 cycles
 SCF Done:  E(RB3LYP) =  -706.393854769     A.U. after   11 cycles
 SCF Done:  E(RB3LYP) =  -706.393917123     A.U. after   10 cycles
 SCF Done:  E(RB3LYP) =  -706.393941952     A.U. after   10 cycles
 SCF Done:  E(RB3LYP) =  -706.393955569     A.U. after   10 cycles
 SCF Done:  E(RB3LYP) =  -706.393966416     A.U. after   10 cycles
 SCF Done:  E(RB3LYP) =  -706.393969670     A.U. after    9 cycles
 SCF Done:  E(RB3LYP) =  -706.393974568     A.U. after    9 cycles
 SCF Done:  E(RB3LYP) =  -706.393975046     A.U. after    9 cycles
 SCF Done:  E(RB3LYP) =  -706.393974804     A.U. after    8 cycles
 Optimization completed.
    -- Stationary point found.

                         Standard orientation:
 ---------------------------------------------------------------------
 Center     Atomic      Atomic             Coordinates (Angstroms)
 Number     Number       Type             X           Y           Z
 ---------------------------------------------------------------------
      1          6           0        0.246774    0.926918    0.221971
      2          8           0        0.140571    1.150100    1.336166
      3          6           0        0.108077    1.174717   -1.200653
      4          1           0        0.038703    0.230366   -1.738829
      5          1           0       -0.798987    1.775028   -1.338729
      6          1           0        1.005540    1.722500   -1.515206
      7         17           0       -2.319556   -0.797409   -0.003076
      8          6           0        2.241987   -0.565453    0.017146
      9          7           0        3.211657   -1.227121   -0.039293
 ---------------------------------------------------------------------

 The electronic state is 1-A.
 Alpha  occ. eigenvalues -- -101.41976 -19.27570 -14.28599 -10.39337 -10.23561
 Alpha  occ. eigenvalues --  -10.15840  -9.33308  -7.09127  -7.09073  -7.09066
 Alpha  occ. eigenvalues --   -1.18144  -0.84282  -0.80818  -0.67214  -0.58368
 Alpha  occ. eigenvalues --   -0.51599  -0.51237  -0.50705  -0.43028  -0.42769
 Alpha  occ. eigenvalues --   -0.37335  -0.28984  -0.28961  -0.26722  -0.22018
 Alpha  occ. eigenvalues --   -0.21728  -0.21687
 Alpha virt. eigenvalues --   -0.06800  -0.05092   0.02054   0.04584   0.04648
 Alpha virt. eigenvalues --    0.05171   0.06942   0.07352   0.08530   0.09642
 Alpha virt. eigenvalues --    0.09899   0.10480   0.10819   0.12440   0.13228

 Mulliken charges:
               1
     1  C    0.658887
     2  O   -0.162765
     3  C   -0.693829
     4  H    0.340007
     5  H    0.307953
     6  H    0.312746
     7  Cl  -0.910739
     8  C   -0.212482
     9  N   -0.639778
 Sum of Mulliken charges =  -1.00000

 Dipole moment (field-independent basis, Debye):
    X=              0.5603    Y=             10.5735    Z=             -2.9251  Tot=             10.9849
 Quadrupole moment (field-independent basis, Debye-Ang):
   XX=           -102.7756   YY=            -49.7794   ZZ=            -44.1206
   XY=              4.1080   XZ=              0.0152   YZ=             -3.7583

 Normal termination of Gaussian 16 at Wed Jan  8 02:48:43 2020.
