 Gaussian 16, Revision A.03,
 Gaussian 16:  AS64L-G16RevA.03 25-Dec-2016

 ----------------------------------------------------------------------
 #p opt=modredundant b3lyp/6-31+g(d) scrf=(smd, solvent=tetrahydrofuran
 )
 ----------------------------------------------------------------------

 -----
 title
 -----
 Symbolic Z-matrix:
 Charge = -1 Multiplicity = 1

 SCF Done:  E(RB3LYP) =  -706.407846188     A.U. after   14 cycles
 SCF Done:  E(RB3LYP) =  -706.410585238     A.U. after   12 cycles
 SCF Done:  E(RB3LYP) =  -706.410848104     A.U. after   11 cycles
 SCF Done:  E(RB3LYP) =  -706.410858616     A.U. after   10 cycles
 SCF Done:  E(RB3LYP) =  -706.410861038     A.U. after    9 cycles
 SCF Done:  E(RB3LYP) =  -706.410861312     A.U. after    8 cycles
 Optimization completed.
    -- Stationary point found.

                         Standard orientation:
 ---------------------------------------------------------------------
 Center     Atomic      Atomic             Coordinates (Angstroms)
 Number     Number       Type             X           Y           Z
 ---------------------------------------------------------------------
      1          6           0       -0.121531    0.413586    0.227505
      2          8           0       -0.185333    0.834961    1.420142
      3          6           0       -0.308394    1.437067   -0.910396
      4          1           0       -0.183854    0.994758   -1.904761
      5          1           0       -1.315899    1.862015   -0.828028
      6          1           0        0.423344    2.242126   -0.778357
      7         17           0       -1.218255   -0.967969   -0.130965
      8          6           0        1.396321   -0.284446   -0.086946
      9          7           0        2.495863   -0.674336   -0.143510
 ---------------------------------------------------------------------

 The electronic state is 1-A.
 Alpha  occ. eigenvalues -- -101.49466 -19.06185 -14.30955 -10.28726 -10.19576
 Alpha  occ. eigenvalues --  -10.15881  -9.41297  -7.17536  -7.16776  -7.16755
 Alpha  occ. eigenvalues --   -0.97058  -0.87187  -0.80110  -0.69970  -0.56126
 Alpha  occ. eigenvalues --   -0.46028  -0.42125  -0.39460  -0.37267  -0.35556
 Alpha  occ. eigenvalues --   -0.34672  -0.31822  -0.30897  -0.27575  -0.26998
 Alpha  occ. eigenvalues --   -0.21736  -0.20494
 Alpha virt. eigenvalues --    0.02461   0.03585   0.04411   0.05439   0.06085
 Alpha virt. eigenvalues --    0.06894   0.07484   0.09006   0.09786   0.10205
 Alpha virt. eigenvalues --    0.10328   0.11007   0.13928   0.14002   0.14297

 Mulliken charges:
               1
     1  C    0.094393
     2  O   -0.544925
     3  C   -0.606755
     4  H    0.218711
     5  H    0.224742
     6  H    0.224716
     7  Cl  -0.138849
     8  C    0.194957
     9  N   -0.666991
 Sum of Mulliken charges =  -1.00000

 Dipole moment (field-independent basis, Debye):
    X=             -3.0793    Y=              1.5309    Z=             -3.8353  Tot=              5.1512
 Quadrupole moment (field-independent basis, Debye-Ang):
   XX=            -63.4270   YY=            -49.4080   ZZ=            -52.3137
   XY=              3.0501   XZ=              1.7732   YZ=             -4.7938

 Normal termination of Gaussian 16 at Tue Jan  7 23:40:52 2020.
