 Gaussian 16, Revision A.03,
 Gaussian 16:  AS64L-G16RevA.03 25-Dec-2016

 ----------------------------------------------------------------------
 #p opt=modredundant b3lyp/6-31+g(d) scrf=(smd, solvent=tetrahydrofuran
 )
 ----------------------------------------------------------------------

 -----
 title
 -----
 Symbolic Z-matrix:
 Charge = -1 Multiplicity = 1

 SCF Done:  E(RB3LYP) =  -706.387787261     A.U. after   14 cycles
 SCF Done:  E(RB3LYP) =  -706.404510416     A.U. after   12 cycles
 SCF Done:  E(RB3LYP) =  -706.406574732     A.U. after   12 cycles
 SCF Done:  E(RB3LYP) =  -706.406729147     A.U. after   11 cycles
 SCF Done:  E(RB3LYP) =  -706.406766313     A.U. after   10 cycles
 SCF Done:  E(RB3LYP) =  -706.406773291     A.U. after   10 cycles
 SCF Done:  E(RB3LYP) =  -706.406777868     A.U. after   10 cycles
 SCF Done:  E(RB3LYP) =  -706.406779084     A.U. after   10 cycles
 SCF Done:  E(RB3LYP) =  -706.406778394     A.U. after    9 cycles
 SCF Done:  E(RB3LYP) =  -706.406778420     A.U. after    8 cycles
 SCF Done:  E(RB3LYP) =  -706.406779051     A.U. after    9 cycles
 SCF Done:  E(RB3LYP) =  -706.406778487     A.U. after   10 cycles
 SCF Done:  E(RB3LYP) =  -706.406778171     A.U. after    9 cycles
 SCF Done:  E(RB3LYP) =  -706.406779034     A.U. after   10 cycles
 SCF Done:  E(RB3LYP) =  -706.406777916     A.U. after   10 cycles
 Optimization completed.
    -- Stationary point found.

                         Standard orientation:
 ---------------------------------------------------------------------
 Center     Atomic      Atomic             Coordinates (Angstroms)
 Number     Number       Type             X           Y           Z
 ---------------------------------------------------------------------
      1          6           0       -0.427041    0.486132    0.249547
      2          8           0       -0.438662    0.831878    1.407244
      3          6           0       -0.424684    1.427303   -0.933269
      4          1           0       -0.129057    0.929716   -1.857028
      5          1           0       -1.447174    1.816710   -1.043808
      6          1           0        0.251522    2.259731   -0.722613
      7         17           0       -1.212132   -1.081176   -0.159328
      8          6           0        1.738123   -0.204087   -0.104946
      9          7           0        2.874551   -0.505325   -0.027702
 ---------------------------------------------------------------------

 The electronic state is 1-A.
 Alpha  occ. eigenvalues -- -101.51511 -19.13160 -14.26878 -10.31176 -10.17527
 Alpha  occ. eigenvalues --  -10.13548  -9.43255  -7.19533  -7.18741  -7.18687
 Alpha  occ. eigenvalues --   -1.04165  -0.82627  -0.81829  -0.71956  -0.52771
 Alpha  occ. eigenvalues --   -0.45052  -0.44602  -0.42960  -0.37826  -0.36609
 Alpha  occ. eigenvalues --   -0.34494  -0.29671  -0.29179  -0.27355  -0.27055
 Alpha  occ. eigenvalues --   -0.25577  -0.23386
 Alpha virt. eigenvalues --   -0.00399   0.02764   0.04541   0.05292   0.06077
 Alpha virt. eigenvalues --    0.06457   0.08462   0.08935   0.09230   0.09758
 Alpha virt. eigenvalues --    0.10783   0.10988   0.11789   0.13480   0.13785

 Mulliken charges:
               1
     1  C   -0.181801
     2  O   -0.312257
     3  C   -0.454197
     4  H    0.247626
     5  H    0.238379
     6  H    0.247250
     7  Cl   0.021524
     8  C   -0.116865
     9  N   -0.689658
 Sum of Mulliken charges =  -1.00000

 Dipole moment (field-independent basis, Debye):
    X=             -8.0193    Y=              2.8931    Z=             -2.8407  Tot=              8.9860
 Quadrupole moment (field-independent basis, Debye-Ang):
   XX=            -74.7864   YY=            -46.8730   ZZ=            -49.4902
   XY=              3.3973   XZ=              1.8085   YZ=             -3.6137

 Normal termination of Gaussian 16 at Tue Jan  7 23:54:28 2020.
