 Gaussian 16, Revision A.03,
 Gaussian 16:  AS64L-G16RevA.03 25-Dec-2016

 ----------------------------------------------------------------------
 #p opt=modredundant b3lyp/6-31+g(d) scrf=(smd, solvent=tetrahydrofuran
 )
 ----------------------------------------------------------------------

 -----
 title
 -----
 Symbolic Z-matrix:
 Charge = -1 Multiplicity = 1

 SCF Done:  E(RB3LYP) =  -706.340126203     A.U. after   15 cycles
 SCF Done:  E(RB3LYP) =  -706.360030251     A.U. after   14 cycles
 SCF Done:  E(RB3LYP) =  -706.365380619     A.U. after   13 cycles
 SCF Done:  E(RB3LYP) =  -706.366072063     A.U. after   12 cycles
 SCF Done:  E(RB3LYP) =  -706.366103572     A.U. after   12 cycles
 SCF Done:  E(RB3LYP) =  -706.366154956     A.U. after   11 cycles
 SCF Done:  E(RB3LYP) =  -706.366157279     A.U. after   10 cycles
 Optimization completed.
    -- Stationary point found.

                         Standard orientation:
 ---------------------------------------------------------------------
 Center     Atomic      Atomic             Coordinates (Angstroms)
 Number     Number       Type             X           Y           Z
 ---------------------------------------------------------------------
      1          6           0        0.410194    0.388208    0.190701
      2          8           0        0.547047    0.862373    1.371668
      3          6           0        0.303635    1.418927   -0.960596
      4          1           0        0.040452    0.966395   -1.920517
      5          1           0       -0.442343    2.168496   -0.686112
      6          1           0        1.283355    1.907375   -1.052270
      7         17           0       -1.601065   -0.479996   -0.011928
      8          6           0        0.993429   -0.629851   -0.061076
      9          7           0        1.673816   -1.549287   -0.303690
 ---------------------------------------------------------------------

 The electronic state is 1-A.
 Alpha  occ. eigenvalues -- -101.45402 -19.09659 -14.32867 -10.25663 -10.20829
 Alpha  occ. eigenvalues --  -10.16547  -9.37012  -7.13058  -7.12620  -7.12601
 Alpha  occ. eigenvalues --   -0.99743  -0.89546  -0.77152  -0.70904  -0.67287
 Alpha  occ. eigenvalues --   -0.45589  -0.44085  -0.42630  -0.37597  -0.36831
 Alpha  occ. eigenvalues --   -0.36352  -0.31074  -0.30201  -0.24801  -0.24476
 Alpha  occ. eigenvalues --   -0.22923  -0.22272
 Alpha virt. eigenvalues --   -0.04506   0.02579   0.03041   0.05104   0.05951
 Alpha virt. eigenvalues --    0.07226   0.08671   0.09391   0.09639   0.10425
 Alpha virt. eigenvalues --    0.10680   0.12069   0.13836   0.13994   0.14550

 Mulliken charges:
               1
     1  C   -0.207763
     2  O   -0.513116
     3  C   -0.554089
     4  H    0.226520
     5  H    0.240891
     6  H    0.226107
     7  Cl  -0.488859
     8  C    0.716975
     9  N   -0.646667
 Sum of Mulliken charges =  -1.00000

 Dipole moment (field-independent basis, Debye):
    X=              1.0844    Y=              3.2164    Z=             -3.2473  Tot=              4.6975
 Quadrupole moment (field-independent basis, Debye-Ang):
   XX=            -59.2277   YY=            -52.9394   ZZ=            -50.7260
   XY=              2.6434   XZ=             -1.1327   YZ=             -5.2224

 Normal termination of Gaussian 16 at Wed Jan  8 00:45:46 2020.
