 Gaussian 16, Revision A.03,
 Gaussian 16:  AS64L-G16RevA.03 25-Dec-2016

 ----------------------------------------------------------------------
 #p opt=modredundant b3lyp/6-31+g(d) scrf=(smd, solvent=tetrahydrofuran
 )
 ----------------------------------------------------------------------

 -----
 title
 -----
 Symbolic Z-matrix:
 Charge = -1 Multiplicity = 1

 SCF Done:  E(RB3LYP) =  -706.378819798     A.U. after   14 cycles
 SCF Done:  E(RB3LYP) =  -706.399816864     A.U. after   12 cycles
 SCF Done:  E(RB3LYP) =  -706.403349353     A.U. after   12 cycles
 SCF Done:  E(RB3LYP) =  -706.403612990     A.U. after   11 cycles
 SCF Done:  E(RB3LYP) =  -706.403660412     A.U. after   10 cycles
 SCF Done:  E(RB3LYP) =  -706.403667763     A.U. after   10 cycles
 SCF Done:  E(RB3LYP) =  -706.403679234     A.U. after   11 cycles
 SCF Done:  E(RB3LYP) =  -706.403683351     A.U. after   11 cycles
 SCF Done:  E(RB3LYP) =  -706.403687060     A.U. after    9 cycles
 SCF Done:  E(RB3LYP) =  -706.403578853     A.U. after   13 cycles
 SCF Done:  E(RB3LYP) =  -706.403760485     A.U. after   11 cycles
 SCF Done:  E(RB3LYP) =  -706.403748535     A.U. after   11 cycles
 SCF Done:  E(RB3LYP) =  -706.403761944     A.U. after   11 cycles
 SCF Done:  E(RB3LYP) =  -706.403763430     A.U. after   10 cycles
 SCF Done:  E(RB3LYP) =  -706.403763525     A.U. after   10 cycles
 SCF Done:  E(RB3LYP) =  -706.403767634     A.U. after    9 cycles
 SCF Done:  E(RB3LYP) =  -706.403771904     A.U. after    9 cycles
 SCF Done:  E(RB3LYP) =  -706.403774044     A.U. after    9 cycles
 SCF Done:  E(RB3LYP) =  -706.403780948     A.U. after    9 cycles
 SCF Done:  E(RB3LYP) =  -706.403780920     A.U. after    9 cycles
 Optimization completed.
    -- Stationary point found.

                         Standard orientation:
 ---------------------------------------------------------------------
 Center     Atomic      Atomic             Coordinates (Angstroms)
 Number     Number       Type             X           Y           Z
 ---------------------------------------------------------------------
      1          6           0       -0.524799    0.432246    0.259833
      2          8           0       -0.398846    0.705794    1.432681
      3          6           0       -0.511038    1.456960   -0.851465
      4          1           0       -0.230702    1.023691   -1.811934
      5          1           0       -1.530524    1.863462   -0.929316
      6          1           0        0.174258    2.265340   -0.588401
      7         17           0       -1.226817   -1.051498   -0.182521
      8          6           0        1.835927   -0.221929   -0.239194
      9          7           0        2.976154   -0.418148   -0.006283
 ---------------------------------------------------------------------

 The electronic state is 1-A.
 Alpha  occ. eigenvalues -- -101.53290 -19.13635 -14.26012 -10.31122 -10.17534
 Alpha  occ. eigenvalues --  -10.12388  -9.45142  -7.21439  -7.20624  -7.20527
 Alpha  occ. eigenvalues --   -1.04709  -0.85065  -0.81635  -0.72148  -0.53654
 Alpha  occ. eigenvalues --   -0.45883  -0.44602  -0.43702  -0.38323  -0.36516
 Alpha  occ. eigenvalues --   -0.34634  -0.30513  -0.30263  -0.26588  -0.26454
 Alpha  occ. eigenvalues --   -0.25973  -0.22902
 Alpha virt. eigenvalues --   -0.00958   0.02840   0.04785   0.05412   0.05889
 Alpha virt. eigenvalues --    0.06480   0.08536   0.09061   0.09230   0.09581
 Alpha virt. eigenvalues --    0.11096   0.11145   0.11905   0.13538   0.13678

 Mulliken charges:
               1
     1  C   -0.376922
     2  O   -0.303819
     3  C   -0.394134
     4  H    0.249841
     5  H    0.240666
     6  H    0.250076
     7  Cl   0.198356
     8  C   -0.199837
     9  N   -0.664228
 Sum of Mulliken charges =  -1.00000

 Dipole moment (field-independent basis, Debye):
    X=            -10.0924    Y=              2.5272    Z=             -2.5936  Tot=             10.7224
 Quadrupole moment (field-independent basis, Debye-Ang):
   XX=            -77.4139   YY=            -45.4650   ZZ=            -49.9085
   XY=              3.2413   XZ=              1.8216   YZ=             -3.0315

 Normal termination of Gaussian 16 at Tue Jan  7 23:40:10 2020.
