 Gaussian 16, Revision A.03,
 Gaussian 16:  AS64L-G16RevA.03 25-Dec-2016

 ----------------------------------------------------------------------
 #p opt=modredundant b3lyp/6-31+g(d) scrf=(smd, solvent=tetrahydrofuran
 )
 ----------------------------------------------------------------------

 -----
 title
 -----
 Symbolic Z-matrix:
 Charge = -1 Multiplicity = 1

 SCF Done:  E(RB3LYP) =  -706.349147946     A.U. after   14 cycles
 SCF Done:  E(RB3LYP) =  -706.386154145     A.U. after   13 cycles
 SCF Done:  E(RB3LYP) =  -706.396369333     A.U. after   12 cycles
 SCF Done:  E(RB3LYP) =  -706.400797974     A.U. after   12 cycles
 SCF Done:  E(RB3LYP) =  -706.401452567     A.U. after   11 cycles
 SCF Done:  E(RB3LYP) =  -706.401563909     A.U. after   11 cycles
 SCF Done:  E(RB3LYP) =  -706.401607808     A.U. after   10 cycles
 SCF Done:  E(RB3LYP) =  -706.401628634     A.U. after   10 cycles
 SCF Done:  E(RB3LYP) =  -706.401634933     A.U. after    9 cycles
 SCF Done:  E(RB3LYP) =  -706.401637513     A.U. after    9 cycles
 SCF Done:  E(RB3LYP) =  -706.401639759     A.U. after    9 cycles
 SCF Done:  E(RB3LYP) =  -706.401640576     A.U. after    8 cycles
 SCF Done:  E(RB3LYP) =  -706.401641350     A.U. after    8 cycles
 SCF Done:  E(RB3LYP) =  -706.401642057     A.U. after    9 cycles
 SCF Done:  E(RB3LYP) =  -706.401642556     A.U. after    9 cycles
 SCF Done:  E(RB3LYP) =  -706.401642802     A.U. after    8 cycles
 SCF Done:  E(RB3LYP) =  -706.401642805     A.U. after    8 cycles
 Optimization completed.
    -- Stationary point found.

                         Standard orientation:
 ---------------------------------------------------------------------
 Center     Atomic      Atomic             Coordinates (Angstroms)
 Number     Number       Type             X           Y           Z
 ---------------------------------------------------------------------
      1          6           0       -0.344249    0.826586    0.263544
      2          8           0       -0.225790    1.056292    1.387228
      3          6           0       -0.199132    1.348646   -1.100695
      4          1           0        0.023343    0.543902   -1.797706
      5          1           0       -1.156761    1.814251   -1.365263
      6          1           0        0.604427    2.093319   -1.085587
      7         17           0       -1.839866   -1.019824   -0.073948
      8          6           0        2.238027   -0.451112   -0.067124
      9          7           0        3.349308   -0.844217   -0.023787
 ---------------------------------------------------------------------

 The electronic state is 1-A.
 Alpha  occ. eigenvalues -- -101.47092 -19.24488 -14.26380 -10.37082 -10.22137
 Alpha  occ. eigenvalues --  -10.12905  -9.38468  -7.14542  -7.14097  -7.14072
 Alpha  occ. eigenvalues --   -1.15005  -0.81977  -0.78947  -0.72303  -0.56513
 Alpha  occ. eigenvalues --   -0.49548  -0.48961  -0.48575  -0.41352  -0.41096
 Alpha  occ. eigenvalues --   -0.35537  -0.27152  -0.26984  -0.26941  -0.25841
 Alpha  occ. eigenvalues --   -0.25633  -0.23780
 Alpha virt. eigenvalues --   -0.05931  -0.03652   0.02609   0.04688   0.05105
 Alpha virt. eigenvalues --    0.05352   0.07800   0.08032   0.08770   0.09612
 Alpha virt. eigenvalues --    0.09899   0.11248   0.11475   0.12658   0.13244

 Mulliken charges:
               1
     1  C    0.435248
     2  O   -0.163230
     3  C   -0.669741
     4  H    0.317003
     5  H    0.295672
     6  H    0.290993
     7  Cl  -0.558219
     8  C   -0.291560
     9  N   -0.656167
 Sum of Mulliken charges =  -1.00000

 Dipole moment (field-independent basis, Debye):
    X=             -8.0087    Y=              8.7407    Z=             -2.3690  Tot=             12.0893
 Quadrupole moment (field-independent basis, Debye-Ang):
   XX=            -95.3284   YY=            -47.4819   ZZ=            -45.4184
   XY=              3.6281   XZ=              0.6762   YZ=             -3.9123

 Normal termination of Gaussian 16 at Wed Jan  8 01:27:43 2020.
