 Gaussian 16, Revision A.03,
 Gaussian 16:  AS64L-G16RevA.03 25-Dec-2016

 ----------------------------------------------------------------------
 #p opt=modredundant b3lyp/6-31+g(d) scrf=(smd, solvent=tetrahydrofuran
 )
 ----------------------------------------------------------------------

 -----
 title
 -----
 Symbolic Z-matrix:
 Charge = -1 Multiplicity = 1

 SCF Done:  E(RB3LYP) =  -706.359429488     A.U. after   15 cycles
 SCF Done:  E(RB3LYP) =  -706.394159264     A.U. after   13 cycles
 SCF Done:  E(RB3LYP) =  -706.409380999     A.U. after   13 cycles
 SCF Done:  E(RB3LYP) =  -706.416217149     A.U. after   12 cycles
 SCF Done:  E(RB3LYP) =  -706.417271560     A.U. after   11 cycles
 SCF Done:  E(RB3LYP) =  -706.417445336     A.U. after   11 cycles
 SCF Done:  E(RB3LYP) =  -706.417521231     A.U. after   11 cycles
 SCF Done:  E(RB3LYP) =  -706.417536171     A.U. after   11 cycles
 SCF Done:  E(RB3LYP) =  -706.417538152     A.U. after   10 cycles
 SCF Done:  E(RB3LYP) =  -706.417538220     A.U. after    9 cycles
 SCF Done:  E(RB3LYP) =  -706.417538111     A.U. after    8 cycles
 Optimization completed.
    -- Stationary point found.

                         Standard orientation:
 ---------------------------------------------------------------------
 Center     Atomic      Atomic             Coordinates (Angstroms)
 Number     Number       Type             X           Y           Z
 ---------------------------------------------------------------------
      1          6           0        0.543871    0.873105    0.219522
      2          8           0        0.453265    1.234102    1.326619
      3          6           0        0.266084    1.386583   -1.134987
      4          1           0       -0.077495    0.579337   -1.780499
      5          1           0       -0.481618    2.182056   -1.068834
      6          1           0        1.213488    1.784001   -1.524889
      7         17           0       -2.122598   -0.694187    0.010865
      8          6           0        1.684781   -0.751073   -0.026183
      9          7           0        2.405037   -1.666959   -0.110506
 ---------------------------------------------------------------------

 The electronic state is 1-A.
 Alpha  occ. eigenvalues -- -101.41378 -19.21452 -14.31876 -10.35663 -10.20687
 Alpha  occ. eigenvalues --  -10.20381  -9.32712  -7.08516  -7.08482  -7.08477
 Alpha  occ. eigenvalues --   -1.12041  -0.87736  -0.77336  -0.66624  -0.56232
 Alpha  occ. eigenvalues --   -0.50226  -0.47751  -0.46862  -0.40700  -0.39675
 Alpha  occ. eigenvalues --   -0.37775  -0.31973  -0.31881  -0.29561  -0.21319
 Alpha  occ. eigenvalues --   -0.21184  -0.21156
 Alpha virt. eigenvalues --   -0.04295  -0.01461   0.02447   0.04091   0.04791
 Alpha virt. eigenvalues --    0.05935   0.06483   0.07255   0.08843   0.09704
 Alpha virt. eigenvalues --    0.09941   0.10197   0.10665   0.12710   0.13343

 Mulliken charges:
               1
     1  C    0.609139
     2  O   -0.244730
     3  C   -0.738059
     4  H    0.298078
     5  H    0.272902
     6  H    0.283249
     7  Cl  -0.924499
     8  C    0.036384
     9  N   -0.592463
 Sum of Mulliken charges =  -1.00000

 Dipole moment (field-independent basis, Debye):
    X=              5.0875    Y=              8.7268    Z=             -2.8089  Tot=             10.4848
 Quadrupole moment (field-independent basis, Debye-Ang):
   XX=            -80.0510   YY=            -53.2302   ZZ=            -46.3272
   XY=              3.5851   XZ=             -0.2056   YZ=             -4.7003

 Normal termination of Gaussian 16 at Wed Jan  8 02:37:29 2020.
