 Gaussian 16, Revision A.03,
 Gaussian 16:  AS64L-G16RevA.03 25-Dec-2016

 ----------------------------------------------------------------------
 #p opt=modredundant b3lyp/6-31+g(d) scrf=(smd, solvent=tetrahydrofuran
 )
 ----------------------------------------------------------------------

 -----
 title
 -----
 Symbolic Z-matrix:
 Charge = -1 Multiplicity = 1

 SCF Done:  E(RB3LYP) =  -706.351464172     A.U. after   15 cycles
 SCF Done:  E(RB3LYP) =  -706.387273405     A.U. after   13 cycles
 SCF Done:  E(RB3LYP) =  -706.401931019     A.U. after   13 cycles
 SCF Done:  E(RB3LYP) =  -706.408865094     A.U. after   12 cycles
 SCF Done:  E(RB3LYP) =  -706.410266754     A.U. after   12 cycles
 SCF Done:  E(RB3LYP) =  -706.410503796     A.U. after   11 cycles
 SCF Done:  E(RB3LYP) =  -706.410588171     A.U. after   11 cycles
 SCF Done:  E(RB3LYP) =  -706.410601350     A.U. after   11 cycles
 SCF Done:  E(RB3LYP) =  -706.410604255     A.U. after    9 cycles
 SCF Done:  E(RB3LYP) =  -706.410604074     A.U. after    9 cycles
 Optimization completed.
    -- Stationary point found.

                         Standard orientation:
 ---------------------------------------------------------------------
 Center     Atomic      Atomic             Coordinates (Angstroms)
 Number     Number       Type             X           Y           Z
 ---------------------------------------------------------------------
      1          6           0        0.478467    0.916383    0.221479
      2          8           0        0.372286    1.259260    1.325806
      3          6           0        0.220262    1.364802   -1.154962
      4          1           0       -0.074168    0.518882   -1.774260
      5          1           0       -0.562426    2.129349   -1.134583
      6          1           0        1.162298    1.784421   -1.532897
      7         17           0       -2.128120   -0.748046    0.008450
      8          6           0        1.780435   -0.714567   -0.012783
      9          7           0        2.542724   -1.598523   -0.090109
 ---------------------------------------------------------------------

 The electronic state is 1-A.
 Alpha  occ. eigenvalues -- -101.41471 -19.22782 -14.31125 -10.36414 -10.21302
 Alpha  occ. eigenvalues --  -10.19379  -9.32804  -7.08611  -7.08573  -7.08568
 Alpha  occ. eigenvalues --   -1.13377  -0.86941  -0.78001  -0.66715  -0.56275
 Alpha  occ. eigenvalues --   -0.50199  -0.48553  -0.47632  -0.40890  -0.40383
 Alpha  occ. eigenvalues --   -0.37996  -0.31285  -0.31215  -0.29220  -0.21430
 Alpha  occ. eigenvalues --   -0.21264  -0.21238
 Alpha virt. eigenvalues --   -0.04656  -0.02605   0.02378   0.04338   0.04719
 Alpha virt. eigenvalues --    0.05698   0.06534   0.07261   0.08772   0.09780
 Alpha virt. eigenvalues --    0.09897   0.10160   0.10688   0.12656   0.13321

 Mulliken charges:
               1
     1  C    0.618517
     2  O   -0.218895
     3  C   -0.726340
     4  H    0.306489
     5  H    0.278611
     6  H    0.289547
     7  Cl  -0.921091
     8  C   -0.023273
     9  N   -0.603565
 Sum of Mulliken charges =  -1.00000

 Dipole moment (field-independent basis, Debye):
    X=              4.2342    Y=              9.4499    Z=             -2.8147  Tot=             10.7308
 Quadrupole moment (field-independent basis, Debye-Ang):
   XX=            -82.8941   YY=            -52.8056   ZZ=            -45.8052
   XY=              3.8124   XZ=             -0.0675   YZ=             -4.5667

 Normal termination of Gaussian 16 at Wed Jan  8 03:27:59 2020.
