 Gaussian 16, Revision A.03,
 Gaussian 16:  AS64L-G16RevA.03 25-Dec-2016

 ----------------------------------------------------------------------
 #p opt=modredundant b3lyp/6-31+g(d) scrf=(smd, solvent=tetrahydrofuran
 )
 ----------------------------------------------------------------------

 -----
 title
 -----
 Symbolic Z-matrix:
 Charge = -1 Multiplicity = 1

 SCF Done:  E(RB3LYP) =  -706.333576528     A.U. after   14 cycles
 SCF Done:  E(RB3LYP) =  -706.342511529     A.U. after   12 cycles
 SCF Done:  E(RB3LYP) =  -706.343096640     A.U. after   12 cycles
 SCF Done:  E(RB3LYP) =  -706.343173891     A.U. after   11 cycles
 SCF Done:  E(RB3LYP) =  -706.343204244     A.U. after   11 cycles
 SCF Done:  E(RB3LYP) =  -706.343215760     A.U. after   11 cycles
 SCF Done:  E(RB3LYP) =  -706.343223252     A.U. after   10 cycles
 SCF Done:  E(RB3LYP) =  -706.343223472     A.U. after    9 cycles
 Optimization completed.
    -- Stationary point found.

                         Standard orientation:
 ---------------------------------------------------------------------
 Center     Atomic      Atomic             Coordinates (Angstroms)
 Number     Number       Type             X           Y           Z
 ---------------------------------------------------------------------
      1          6           0       -0.410250    0.282707    0.228598
      2          8           0       -0.378670    0.569131    1.450792
      3          6           0       -0.411762    1.462779   -0.763794
      4          1           0       -0.178464    1.154599   -1.787221
      5          1           0       -1.420368    1.903537   -0.747952
      6          1           0        0.305365    2.216942   -0.432957
      7         17           0       -1.141850   -0.942436   -0.233771
      8          6           0        1.580667   -0.244356   -0.181834
      9          7           0        2.740335   -0.401927   -0.051703
 ---------------------------------------------------------------------

 The electronic state is 1-A.
 Alpha  occ. eigenvalues -- -101.53426 -19.08366 -14.27169 -10.28611 -10.15973
 Alpha  occ. eigenvalues --  -10.13959  -9.45830  -7.22116  -7.21248  -7.21140
 Alpha  occ. eigenvalues --   -1.01065  -0.88604  -0.82957  -0.70125  -0.54114
 Alpha  occ. eigenvalues --   -0.46430  -0.44381  -0.42162  -0.36868  -0.36494
 Alpha  occ. eigenvalues --   -0.34671  -0.29324  -0.29231  -0.27623  -0.26615
 Alpha  occ. eigenvalues --   -0.22837  -0.21666
 Alpha virt. eigenvalues --    0.00422   0.03246   0.05091   0.06161   0.06574
 Alpha virt. eigenvalues --    0.07806   0.08504   0.09111   0.09706   0.09731
 Alpha virt. eigenvalues --    0.10389   0.11169   0.12541   0.13852   0.14138

 Mulliken charges:
               1
     1  C   -0.220819
     2  O   -0.459032
     3  C   -0.458756
     4  H    0.223003
     5  H    0.216497
     6  H    0.234645
     7  Cl   0.269960
     8  C   -0.110108
     9  N   -0.695388
 Sum of Mulliken charges =  -1.00000

 Dipole moment (field-independent basis, Debye):
    X=             -7.7294    Y=              1.0095    Z=             -3.4850  Tot=              8.5386
 Quadrupole moment (field-independent basis, Debye-Ang):
   XX=            -70.0499   YY=            -45.7106   ZZ=            -51.8108
   XY=              3.7567   XZ=              2.3156   YZ=             -2.7404

 Normal termination of Gaussian 16 at Tue Jan  7 22:52:28 2020.
