 Gaussian 16, Revision A.03,
 Gaussian 16:  AS64L-G16RevA.03 25-Dec-2016

 ----------------------------------------------------------------------
 #p opt=modredundant b3lyp/6-31+g(d) scrf=(smd, solvent=tetrahydrofuran
 )
 ----------------------------------------------------------------------

 -----
 title
 -----
 Symbolic Z-matrix:
 Charge = -1 Multiplicity = 1

 SCF Done:  E(RB3LYP) =  -706.372452652     A.U. after   14 cycles
 SCF Done:  E(RB3LYP) =  -706.400657038     A.U. after   12 cycles
 SCF Done:  E(RB3LYP) =  -706.405341579     A.U. after   12 cycles
 SCF Done:  E(RB3LYP) =  -706.406425671     A.U. after   11 cycles
 SCF Done:  E(RB3LYP) =  -706.406527461     A.U. after   11 cycles
 SCF Done:  E(RB3LYP) =  -706.406577228     A.U. after   11 cycles
 SCF Done:  E(RB3LYP) =  -706.406590009     A.U. after   10 cycles
 SCF Done:  E(RB3LYP) =  -706.406598238     A.U. after   11 cycles
 SCF Done:  E(RB3LYP) =  -706.406600540     A.U. after   10 cycles
 SCF Done:  E(RB3LYP) =  -706.406600362     A.U. after   10 cycles
 SCF Done:  E(RB3LYP) =  -706.406600508     A.U. after    9 cycles
 SCF Done:  E(RB3LYP) =  -706.406600344     A.U. after    9 cycles
 SCF Done:  E(RB3LYP) =  -706.406600216     A.U. after    8 cycles
 Optimization completed.
    -- Stationary point found.

                         Standard orientation:
 ---------------------------------------------------------------------
 Center     Atomic      Atomic             Coordinates (Angstroms)
 Number     Number       Type             X           Y           Z
 ---------------------------------------------------------------------
      1          6           0       -0.191565    0.771329    0.251144
      2          8           0       -0.252374    1.135165    1.363819
      3          6           0       -0.238521    1.416896   -1.088981
      4          1           0       -0.042214    0.700470   -1.882088
      5          1           0       -1.237905    1.852154   -1.210017
      6          1           0        0.515963    2.212185   -1.095550
      7         17           0       -1.490816   -1.099169   -0.070075
      8          6           0        1.808422   -0.331489   -0.020601
      9          7           0        2.836715   -0.900096   -0.054428
 ---------------------------------------------------------------------

 The electronic state is 1-A.
 Alpha  occ. eigenvalues -- -101.46201 -19.19196 -14.28072 -10.34215 -10.19987
 Alpha  occ. eigenvalues --  -10.15317  -9.37648  -7.13716  -7.13264  -7.13253
 Alpha  occ. eigenvalues --   -1.09907  -0.83823  -0.76282  -0.71610  -0.53897
 Alpha  occ. eigenvalues --   -0.46751  -0.46210  -0.45817  -0.38808  -0.38581
 Alpha  occ. eigenvalues --   -0.36073  -0.28664  -0.28483  -0.26456  -0.25677
 Alpha  occ. eigenvalues --   -0.24894  -0.24345
 Alpha virt. eigenvalues --   -0.03913   0.00217   0.02996   0.05063   0.05581
 Alpha virt. eigenvalues --    0.05831   0.07673   0.08290   0.09011   0.09906
 Alpha virt. eigenvalues --    0.10432   0.10689   0.11046   0.12876   0.13580

 Mulliken charges:
               1
     1  C    0.238554
     2  O   -0.204201
     3  C   -0.556590
     4  H    0.280077
     5  H    0.267120
     6  H    0.268209
     7  Cl  -0.518322
     8  C   -0.115557
     9  N   -0.659290
 Sum of Mulliken charges =  -1.00000

 Dipole moment (field-independent basis, Debye):
    X=             -4.6644    Y=              7.1830    Z=             -2.5265  Tot=              8.9295
 Quadrupole moment (field-independent basis, Debye-Ang):
   XX=            -77.3832   YY=            -49.8713   ZZ=            -46.9038
   XY=              2.7636   XZ=              1.0506   YZ=             -4.3874

 Normal termination of Gaussian 16 at Wed Jan  8 01:08:03 2020.
