 Gaussian 16, Revision A.03,
 Gaussian 16:  AS64L-G16RevA.03 25-Dec-2016

 ----------------------------------------------------------------------
 #p opt=modredundant b3lyp/6-31+g(d) scrf=(smd, solvent=tetrahydrofuran
 )
 ----------------------------------------------------------------------

 -----
 title
 -----
 Symbolic Z-matrix:
 Charge = -1 Multiplicity = 1

 SCF Done:  E(RB3LYP) =  -706.320366902     A.U. after   16 cycles
 SCF Done:  E(RB3LYP) =  -706.361446199     A.U. after   14 cycles
 SCF Done:  E(RB3LYP) =  -706.377407724     A.U. after   12 cycles
 SCF Done:  E(RB3LYP) =  -706.386021684     A.U. after   12 cycles
 SCF Done:  E(RB3LYP) =  -706.388966451     A.U. after   11 cycles
 SCF Done:  E(RB3LYP) =  -706.389194697     A.U. after   11 cycles
 SCF Done:  E(RB3LYP) =  -706.389322448     A.U. after   11 cycles
 SCF Done:  E(RB3LYP) =  -706.389461078     A.U. after   10 cycles
 SCF Done:  E(RB3LYP) =  -706.389673108     A.U. after   11 cycles
 SCF Done:  E(RB3LYP) =  -706.389823660     A.U. after   11 cycles
 SCF Done:  E(RB3LYP) =  -706.389871234     A.U. after   10 cycles
 SCF Done:  E(RB3LYP) =  -706.389879577     A.U. after    9 cycles
 SCF Done:  E(RB3LYP) =  -706.389882775     A.U. after    9 cycles
 SCF Done:  E(RB3LYP) =  -706.389884310     A.U. after    9 cycles
 SCF Done:  E(RB3LYP) =  -706.389881955     A.U. after    8 cycles
 SCF Done:  E(RB3LYP) =  -706.389876455     A.U. after    9 cycles
 SCF Done:  E(RB3LYP) =  -706.389877966     A.U. after    8 cycles
 SCF Done:  E(RB3LYP) =  -706.389879942     A.U. after    8 cycles
 SCF Done:  E(RB3LYP) =  -706.389879968     A.U. after    8 cycles
 SCF Done:  E(RB3LYP) =  -706.389879980     A.U. after    8 cycles
 Optimization completed.
    -- Stationary point found.

                         Standard orientation:
 ---------------------------------------------------------------------
 Center     Atomic      Atomic             Coordinates (Angstroms)
 Number     Number       Type             X           Y           Z
 ---------------------------------------------------------------------
      1          6           0        0.070954    0.881857    0.201367
      2          8           0        0.052233    1.072211    1.319604
      3          6           0        0.066037    1.010137   -1.232873
      4          1           0        0.097400    0.020978   -1.691303
      5          1           0       -0.858374    1.534234   -1.505021
      6          1           0        0.958569    1.588907   -1.503043
      7         17           0       -2.431801   -0.760889    0.007446
      8          6           0        2.500109   -0.501365    0.040429
      9          7           0        3.557508   -1.018639   -0.005368
 ---------------------------------------------------------------------

 The electronic state is 1-A.
 Alpha  occ. eigenvalues -- -101.42732 -19.29523 -14.27276 -10.40589 -10.24483
 Alpha  occ. eigenvalues --  -10.13990  -9.34066  -7.09913  -7.09816  -7.09807
 Alpha  occ. eigenvalues --   -1.20092  -0.82909  -0.82158  -0.67963  -0.59542
 Alpha  occ. eigenvalues --   -0.52740  -0.52465  -0.52008  -0.44082  -0.43803
 Alpha  occ. eigenvalues --   -0.36358  -0.27799  -0.27782  -0.25082  -0.22833
 Alpha  occ. eigenvalues --   -0.22367  -0.22319
 Alpha virt. eigenvalues --   -0.07396  -0.06002   0.01780   0.04520   0.04690
 Alpha virt. eigenvalues --    0.04950   0.07026   0.07504   0.08472   0.09576
 Alpha virt. eigenvalues --    0.09887   0.10889   0.11116   0.12286   0.13041

 Mulliken charges:
               1
     1  C    0.767985
     2  O   -0.184468
     3  C   -0.719415
     4  H    0.354313
     5  H    0.323143
     6  H    0.322873
     7  Cl  -0.883239
     8  C   -0.327607
     9  N   -0.653584
 Sum of Mulliken charges =  -1.00000

 Dipole moment (field-independent basis, Debye):
    X=             -2.3647    Y=             10.1199    Z=             -3.2360  Tot=             10.8847
 Quadrupole moment (field-independent basis, Debye-Ang):
   XX=           -115.7684   YY=            -48.4718   ZZ=            -43.3756
   XY=              4.1081   XZ=             -0.1556   YZ=             -3.1831

 Normal termination of Gaussian 16 at Wed Jan  8 02:46:51 2020.
