 Gaussian 16, Revision A.03,
 Gaussian 16:  AS64L-G16RevA.03 25-Dec-2016

 ----------------------------------------------------------------------
 #p opt=modredundant b3lyp/6-31+g(d) scrf=(smd, solvent=tetrahydrofuran
 )
 ----------------------------------------------------------------------

 -----
 title
 -----
 Symbolic Z-matrix:
 Charge = -1 Multiplicity = 1

 SCF Done:  E(RB3LYP) =  -706.388535896     A.U. after   14 cycles
 SCF Done:  E(RB3LYP) =  -706.407093390     A.U. after   13 cycles
 SCF Done:  E(RB3LYP) =  -706.409470967     A.U. after   12 cycles
 SCF Done:  E(RB3LYP) =  -706.409703134     A.U. after   12 cycles
 SCF Done:  E(RB3LYP) =  -706.409745686     A.U. after   10 cycles
 SCF Done:  E(RB3LYP) =  -706.409763296     A.U. after   10 cycles
 SCF Done:  E(RB3LYP) =  -706.409777710     A.U. after   11 cycles
 SCF Done:  E(RB3LYP) =  -706.409783301     A.U. after    9 cycles
 SCF Done:  E(RB3LYP) =  -706.409784003     A.U. after    9 cycles
 SCF Done:  E(RB3LYP) =  -706.409783968     A.U. after    9 cycles
 SCF Done:  E(RB3LYP) =  -706.409784109     A.U. after    8 cycles
 Optimization completed.
    -- Stationary point found.

                         Standard orientation:
 ---------------------------------------------------------------------
 Center     Atomic      Atomic             Coordinates (Angstroms)
 Number     Number       Type             X           Y           Z
 ---------------------------------------------------------------------
      1          6           0       -0.396515    0.547345    0.252226
      2          8           0       -0.425706    0.903906    1.396443
      3          6           0       -0.413309    1.422456   -0.973647
      4          1           0       -0.122504    0.876022   -1.869865
      5          1           0       -1.438813    1.799268   -1.093079
      6          1           0        0.262218    2.266886   -0.811155
      7         17           0       -1.239240   -1.110324   -0.137578
      8          6           0        1.754215   -0.196006   -0.082122
      9          7           0        2.872211   -0.562956   -0.033909
 ---------------------------------------------------------------------

 The electronic state is 1-A.
 Alpha  occ. eigenvalues -- -101.50379 -19.14348 -14.27090 -10.31778 -10.18011
 Alpha  occ. eigenvalues --  -10.13870  -9.42038  -7.18284  -7.17544  -7.17505
 Alpha  occ. eigenvalues --   -1.05275  -0.82818  -0.79696  -0.72381  -0.52638
 Alpha  occ. eigenvalues --   -0.45024  -0.44837  -0.43432  -0.37817  -0.36903
 Alpha  occ. eigenvalues --   -0.34746  -0.29188  -0.28489  -0.27549  -0.27145
 Alpha  occ. eigenvalues --   -0.26068  -0.23704
 Alpha virt. eigenvalues --   -0.00836   0.02366   0.03937   0.05179   0.06001
 Alpha virt. eigenvalues --    0.06257   0.08351   0.08860   0.09142   0.09785
 Alpha virt. eigenvalues --    0.10769   0.10932   0.11428   0.13292   0.13749

 Mulliken charges:
               1
     1  C   -0.085969
     2  O   -0.285540
     3  C   -0.480693
     4  H    0.253831
     5  H    0.244267
     6  H    0.250604
     7  Cl  -0.099342
     8  C   -0.111644
     9  N   -0.685515
 Sum of Mulliken charges =  -1.00000

 Dipole moment (field-independent basis, Debye):
    X=             -7.5251    Y=              3.6628    Z=             -2.7317  Tot=              8.8037
 Quadrupole moment (field-independent basis, Debye-Ang):
   XX=            -75.1066   YY=            -47.5191   ZZ=            -48.9130
   XY=              3.1457   XZ=              1.6975   YZ=             -3.8445

 Normal termination of Gaussian 16 at Wed Jan  8 00:07:54 2020.
