 Gaussian 16, Revision A.03,
 Gaussian 16:  AS64L-G16RevA.03 25-Dec-2016

 ----------------------------------------------------------------------
 #p opt=modredundant b3lyp/6-31+g(d) scrf=(smd, solvent=tetrahydrofuran
 )
 ----------------------------------------------------------------------

 -----
 title
 -----
 Symbolic Z-matrix:
 Charge = -1 Multiplicity = 1

 SCF Done:  E(RB3LYP) =  -706.393319621     A.U. after   15 cycles
 SCF Done:  E(RB3LYP) =  -706.424520042     A.U. after   13 cycles
 SCF Done:  E(RB3LYP) =  -706.447570748     A.U. after   14 cycles
 SCF Done:  E(RB3LYP) =  -706.449724165     A.U. after   12 cycles
 SCF Done:  E(RB3LYP) =  -706.449936907     A.U. after   11 cycles
 SCF Done:  E(RB3LYP) =  -706.449813222     A.U. after   12 cycles
 SCF Done:  E(RB3LYP) =  -706.450019991     A.U. after   12 cycles
 SCF Done:  E(RB3LYP) =  -706.450051506     A.U. after   11 cycles
 SCF Done:  E(RB3LYP) =  -706.450095429     A.U. after   11 cycles
 SCF Done:  E(RB3LYP) =  -706.450109674     A.U. after   10 cycles
 SCF Done:  E(RB3LYP) =  -706.450112536     A.U. after    9 cycles
 SCF Done:  E(RB3LYP) =  -706.450114103     A.U. after   10 cycles
 SCF Done:  E(RB3LYP) =  -706.450113668     A.U. after    9 cycles
 SCF Done:  E(RB3LYP) =  -706.450114170     A.U. after    9 cycles
 Optimization completed.
    -- Stationary point found.

                         Standard orientation:
 ---------------------------------------------------------------------
 Center     Atomic      Atomic             Coordinates (Angstroms)
 Number     Number       Type             X           Y           Z
 ---------------------------------------------------------------------
      1          6           0       -0.888445   -0.418423    0.173987
      2          8           0       -1.110831   -0.814671    1.314768
      3          6           0       -0.786510   -1.334605   -1.018873
      4          1           0       -0.176905   -0.905298   -1.816051
      5          1           0       -0.376184   -2.297164   -0.704230
      6          1           0       -1.805604   -1.493148   -1.403145
      7         17           0        2.066980    0.082854    0.054867
      8          6           0       -0.952592    0.957060   -0.078864
      9          7           0       -1.161147    2.082897   -0.283565
 ---------------------------------------------------------------------

 The electronic state is 1-A.
 Alpha  occ. eigenvalues -- -101.41705 -19.15505 -14.35197 -10.30328 -10.23659
 Alpha  occ. eigenvalues --  -10.17878  -9.33051  -7.08882  -7.08804  -7.08802
 Alpha  occ. eigenvalues --   -1.05205  -0.91465  -0.75874  -0.67027  -0.66151
 Alpha  occ. eigenvalues --   -0.48519  -0.44780  -0.44482  -0.39597  -0.38045
 Alpha  occ. eigenvalues --   -0.37289  -0.34139  -0.33307  -0.26981  -0.21581
 Alpha  occ. eigenvalues --   -0.21408  -0.21394
 Alpha virt. eigenvalues --   -0.06856   0.02006   0.02504   0.04590   0.05813
 Alpha virt. eigenvalues --    0.06765   0.08291   0.08837   0.09416   0.10392
 Alpha virt. eigenvalues --    0.10656   0.11184   0.12762   0.13489   0.13922

 Mulliken charges:
               1
     1  C    0.309009
     2  O   -0.398598
     3  C   -0.661416
     4  H    0.254201
     5  H    0.253592
     6  H    0.254803
     7  Cl  -0.885051
     8  C    0.416618
     9  N   -0.543157
 Sum of Mulliken charges =  -1.00000

 Dipole moment (field-independent basis, Debye):
    X=             -7.5759    Y=             -3.5035    Z=             -3.0751  Tot=              8.8952
 Quadrupole moment (field-independent basis, Debye-Ang):
   XX=            -67.1850   YY=            -54.2648   ZZ=            -48.8027
   XY=              2.7992   XZ=              2.5349   YZ=              4.6388

 Normal termination of Gaussian 16 at Wed Jan  8 02:22:45 2020.
