 Gaussian 16, Revision A.03,
 Gaussian 16:  AS64L-G16RevA.03 25-Dec-2016

 ----------------------------------------------------------------------
 #p opt=modredundant b3lyp/6-31+g(d) scrf=(smd, solvent=tetrahydrofuran
 )
 ----------------------------------------------------------------------

 -----
 title
 -----
 Symbolic Z-matrix:
 Charge = -1 Multiplicity = 1

 SCF Done:  E(RB3LYP) =  -706.379065652     A.U. after   14 cycles
 SCF Done:  E(RB3LYP) =  -706.406289972     A.U. after   12 cycles
 SCF Done:  E(RB3LYP) =  -706.411315904     A.U. after   12 cycles
 SCF Done:  E(RB3LYP) =  -706.412334989     A.U. after   12 cycles
 SCF Done:  E(RB3LYP) =  -706.412408398     A.U. after   11 cycles
 SCF Done:  E(RB3LYP) =  -706.412417668     A.U. after   10 cycles
 SCF Done:  E(RB3LYP) =  -706.412436622     A.U. after   11 cycles
 SCF Done:  E(RB3LYP) =  -706.412440170     A.U. after   10 cycles
 SCF Done:  E(RB3LYP) =  -706.412441797     A.U. after   10 cycles
 SCF Done:  E(RB3LYP) =  -706.412441754     A.U. after    8 cycles
 Optimization completed.
    -- Stationary point found.

                         Standard orientation:
 ---------------------------------------------------------------------
 Center     Atomic      Atomic             Coordinates (Angstroms)
 Number     Number       Type             X           Y           Z
 ---------------------------------------------------------------------
      1          6           0       -0.479161    0.627035    0.255873
      2          8           0       -0.445626    0.955525    1.389659
      3          6           0       -0.387131    1.411199   -1.011325
      4          1           0       -0.060651    0.792294   -1.844096
      5          1           0       -1.393343    1.801198   -1.219288
      6          1           0        0.303692    2.244095   -0.856168
      7         17           0       -1.370428   -1.122248   -0.125771
      8          6           0        1.955419   -0.224866   -0.071367
      9          7           0        3.068261   -0.611969   -0.014100
 ---------------------------------------------------------------------

 The electronic state is 1-A.
 Alpha  occ. eigenvalues -- -101.50282 -19.17901 -14.26274 -10.33390 -10.19252
 Alpha  occ. eigenvalues --  -10.12761  -9.41847  -7.18072  -7.17380  -7.17334
 Alpha  occ. eigenvalues --   -1.08682  -0.81900  -0.78882  -0.73708  -0.53587
 Alpha  occ. eigenvalues --   -0.46330  -0.45602  -0.45416  -0.38694  -0.37816
 Alpha  occ. eigenvalues --   -0.35179  -0.28823  -0.28675  -0.27535  -0.26822
 Alpha  occ. eigenvalues --   -0.26724  -0.23371
 Alpha virt. eigenvalues --   -0.02311   0.00485   0.03238   0.04940   0.05486
 Alpha virt. eigenvalues --    0.05918   0.08349   0.08769   0.08992   0.09666
 Alpha virt. eigenvalues --    0.10556   0.11272   0.11299   0.13116   0.13583

 Mulliken charges:
               1
     1  C   -0.004038
     2  O   -0.225550
     3  C   -0.516973
     4  H    0.274291
     5  H    0.260746
     6  H    0.263618
     7  Cl  -0.177398
     8  C   -0.204683
     9  N   -0.670013
 Sum of Mulliken charges =  -1.00000

 Dipole moment (field-independent basis, Debye):
    X=             -9.1647    Y=              4.9737    Z=             -2.5334  Tot=             10.7307
 Quadrupole moment (field-independent basis, Debye-Ang):
   XX=            -81.6825   YY=            -47.1527   ZZ=            -47.7155
   XY=              3.2763   XZ=              1.3555   YZ=             -3.7881

 Normal termination of Gaussian 16 at Wed Jan  8 00:26:42 2020.
