 Gaussian 16, Revision A.03,
 Gaussian 16:  AS64L-G16RevA.03 25-Dec-2016

 ----------------------------------------------------------------------
 #p opt=modredundant b3lyp/6-31+g(d) scrf=(smd, solvent=tetrahydrofuran
 )
 ----------------------------------------------------------------------

 -----
 title
 -----
 Symbolic Z-matrix:
 Charge = -1 Multiplicity = 1

 SCF Done:  E(RB3LYP) =  -706.372840587     A.U. after   14 cycles
 SCF Done:  E(RB3LYP) =  -706.402046089     A.U. after   12 cycles
 SCF Done:  E(RB3LYP) =  -706.408716947     A.U. after   12 cycles
 SCF Done:  E(RB3LYP) =  -706.410685578     A.U. after   12 cycles
 SCF Done:  E(RB3LYP) =  -706.410780896     A.U. after   11 cycles
 SCF Done:  E(RB3LYP) =  -706.410815259     A.U. after   11 cycles
 SCF Done:  E(RB3LYP) =  -706.410842745     A.U. after   10 cycles
 SCF Done:  E(RB3LYP) =  -706.410853135     A.U. after   10 cycles
 SCF Done:  E(RB3LYP) =  -706.410854758     A.U. after    9 cycles
 SCF Done:  E(RB3LYP) =  -706.410855127     A.U. after    9 cycles
 Optimization completed.
    -- Stationary point found.

                         Standard orientation:
 ---------------------------------------------------------------------
 Center     Atomic      Atomic             Coordinates (Angstroms)
 Number     Number       Type             X           Y           Z
 ---------------------------------------------------------------------
      1          6           0        0.057750    0.826363    0.242744
      2          8           0       -0.030995    1.206400    1.349872
      3          6           0       -0.099271    1.430884   -1.106379
      4          1           0       -0.052632    0.676031   -1.887267
      5          1           0       -1.057645    1.959404   -1.137604
      6          1           0        0.723809    2.147891   -1.227998
      7         17           0       -1.626665   -0.999735   -0.036740
      8          6           0        1.690962   -0.467557   -0.018767
      9          7           0        2.627299   -1.168168   -0.089588
 ---------------------------------------------------------------------

 The electronic state is 1-A.
 Alpha  occ. eigenvalues -- -101.43853 -19.19007 -14.29886 -10.34228 -10.19901
 Alpha  occ. eigenvalues --  -10.17911  -9.35263  -7.11214  -7.10944  -7.10939
 Alpha  occ. eigenvalues --   -1.09702  -0.85748  -0.76003  -0.69328  -0.54307
 Alpha  occ. eigenvalues --   -0.47854  -0.46122  -0.45478  -0.39373  -0.38388
 Alpha  occ. eigenvalues --   -0.36508  -0.30256  -0.30129  -0.27500  -0.23730
 Alpha  occ. eigenvalues --   -0.23113  -0.23063
 Alpha virt. eigenvalues --   -0.03624   0.00351   0.02818   0.05081   0.05175
 Alpha virt. eigenvalues --    0.06068   0.07053   0.07828   0.09006   0.10038
 Alpha virt. eigenvalues --    0.10275   0.10471   0.10940   0.12852   0.13608

 Mulliken charges:
               1
     1  C    0.373538
     2  O   -0.228732
     3  C   -0.611108
     4  H    0.278703
     5  H    0.267407
     6  H    0.268420
     7  Cl  -0.697121
     8  C   -0.015553
     9  N   -0.635552
 Sum of Mulliken charges =  -1.00000

 Dipole moment (field-independent basis, Debye):
    X=             -0.9145    Y=              7.9580    Z=             -2.5797  Tot=              8.4155
 Quadrupole moment (field-independent basis, Debye-Ang):
   XX=            -74.5268   YY=            -51.7343   ZZ=            -46.9491
   XY=              2.4445   XZ=              0.7647   YZ=             -4.7003

 Normal termination of Gaussian 16 at Wed Jan  8 01:24:01 2020.
