 Gaussian 16, Revision A.03,
 Gaussian 16:  AS64L-G16RevA.03 25-Dec-2016

 ----------------------------------------------------------------------
 #p opt=modredundant b3lyp/6-31+g(d) scrf=(smd, solvent=tetrahydrofuran
 )
 ----------------------------------------------------------------------

 -----
 title
 -----
 Symbolic Z-matrix:
 Charge = -1 Multiplicity = 1

 SCF Done:  E(RB3LYP) =  -706.393761141     A.U. after   14 cycles
 SCF Done:  E(RB3LYP) =  -706.395341123     A.U. after   11 cycles
 SCF Done:  E(RB3LYP) =  -706.395482712     A.U. after   11 cycles
 SCF Done:  E(RB3LYP) =  -706.395494506     A.U. after   10 cycles
 SCF Done:  E(RB3LYP) =  -706.395494835     A.U. after    8 cycles
 Optimization completed.
    -- Stationary point found.

                         Standard orientation:
 ---------------------------------------------------------------------
 Center     Atomic      Atomic             Coordinates (Angstroms)
 Number     Number       Type             X           Y           Z
 ---------------------------------------------------------------------
      1          6           0       -0.208542    0.367971    0.229046
      2          8           0       -0.273138    0.754612    1.432458
      3          6           0       -0.340448    1.442182   -0.871038
      4          1           0       -0.167797    1.043513   -1.876675
      5          1           0       -1.354747    1.859122   -0.819502
      6          1           0        0.378054    2.243227   -0.669342
      7         17           0       -1.180195   -0.969416   -0.167547
      8          6           0        1.444979   -0.261491   -0.102084
      9          7           0        2.573854   -0.570665   -0.111626
 ---------------------------------------------------------------------

 The electronic state is 1-A.
 Alpha  occ. eigenvalues -- -101.50707 -19.06247 -14.29974 -10.28737 -10.18126
 Alpha  occ. eigenvalues --  -10.15808  -9.42647  -7.18926  -7.18094  -7.18067
 Alpha  occ. eigenvalues --   -0.97527  -0.86096  -0.82458  -0.69859  -0.54534
 Alpha  occ. eigenvalues --   -0.46495  -0.42411  -0.39865  -0.37097  -0.35740
 Alpha  occ. eigenvalues --   -0.34428  -0.31164  -0.30071  -0.28160  -0.27334
 Alpha  occ. eigenvalues --   -0.21851  -0.20492
 Alpha virt. eigenvalues --    0.02162   0.03652   0.04858   0.05888   0.06407
 Alpha virt. eigenvalues --    0.07182   0.07697   0.08951   0.09674   0.10132
 Alpha virt. eigenvalues --    0.10274   0.10955   0.13346   0.14016   0.14209

 Mulliken charges:
               1
     1  C    0.077059
     2  O   -0.536566
     3  C   -0.593961
     4  H    0.218240
     5  H    0.220748
     6  H    0.226213
     7  Cl  -0.029551
     8  C    0.096141
     9  N   -0.678323
 Sum of Mulliken charges =  -1.00000

 Dipole moment (field-independent basis, Debye):
    X=             -4.2039    Y=              1.2118    Z=             -3.8442  Tot=              5.8240
 Quadrupole moment (field-independent basis, Debye-Ang):
   XX=            -64.9682   YY=            -48.2157   ZZ=            -52.3988
   XY=              3.3778   XZ=              2.0917   YZ=             -4.2361

 Normal termination of Gaussian 16 at Tue Jan  7 23:17:20 2020.
