 Gaussian 16, Revision A.03,
 Gaussian 16:  AS64L-G16RevA.03 25-Dec-2016

 ----------------------------------------------------------------------
 #p opt=modredundant b3lyp/6-31+g(d) scrf=(smd, solvent=tetrahydrofuran
 )
 ----------------------------------------------------------------------

 -----
 title
 -----
 Symbolic Z-matrix:
 Charge = -1 Multiplicity = 1

 SCF Done:  E(RB3LYP) =  -706.354581484     A.U. after   15 cycles
 SCF Done:  E(RB3LYP) =  -706.388917810     A.U. after   12 cycles
 SCF Done:  E(RB3LYP) =  -706.399913419     A.U. after   12 cycles
 SCF Done:  E(RB3LYP) =  -706.404705313     A.U. after   12 cycles
 SCF Done:  E(RB3LYP) =  -706.405403372     A.U. after   11 cycles
 SCF Done:  E(RB3LYP) =  -706.405443294     A.U. after   10 cycles
 SCF Done:  E(RB3LYP) =  -706.405470091     A.U. after   10 cycles
 SCF Done:  E(RB3LYP) =  -706.405492160     A.U. after   10 cycles
 SCF Done:  E(RB3LYP) =  -706.405500143     A.U. after    9 cycles
 SCF Done:  E(RB3LYP) =  -706.405501393     A.U. after    9 cycles
 Optimization completed.
    -- Stationary point found.

                         Standard orientation:
 ---------------------------------------------------------------------
 Center     Atomic      Atomic             Coordinates (Angstroms)
 Number     Number       Type             X           Y           Z
 ---------------------------------------------------------------------
      1          6           0        0.219462    0.912964    0.236185
      2          8           0        0.118000    1.246780    1.341983
      3          6           0        0.049072    1.390157   -1.146773
      4          1           0       -0.022208    0.556333   -1.840174
      5          1           0       -0.851920    2.011120   -1.184247
      6          1           0        0.938691    1.992911   -1.376012
      7         17           0       -1.899419   -0.899840   -0.016966
      8          6           0        1.809135   -0.588749   -0.004218
      9          7           0        2.687935   -1.360507   -0.079739
 ---------------------------------------------------------------------

 The electronic state is 1-A.
 Alpha  occ. eigenvalues -- -101.42453 -19.22574 -14.29933 -10.36257 -10.21331
 Alpha  occ. eigenvalues --  -10.17845  -9.33810  -7.09673  -7.09546  -7.09540
 Alpha  occ. eigenvalues --   -1.13208  -0.85725  -0.77792  -0.67775  -0.55777
 Alpha  occ. eigenvalues --   -0.49263  -0.48395  -0.47399  -0.40569  -0.40235
 Alpha  occ. eigenvalues --   -0.37522  -0.30219  -0.30154  -0.28045  -0.22460
 Alpha  occ. eigenvalues --   -0.22050  -0.22028
 Alpha virt. eigenvalues --   -0.05001  -0.02012   0.02490   0.04817   0.04872
 Alpha virt. eigenvalues --    0.05664   0.06841   0.07607   0.08817   0.09985
 Alpha virt. eigenvalues --    0.10014   0.10301   0.10848   0.12676   0.13469

 Mulliken charges:
               1
     1  C    0.500871
     2  O   -0.190097
     3  C   -0.650797
     4  H    0.302041
     5  H    0.281639
     6  H    0.287171
     7  Cl  -0.834647
     8  C   -0.072885
     9  N   -0.623296
 Sum of Mulliken charges =  -1.00000

 Dipole moment (field-independent basis, Debye):
    X=              1.0069    Y=              9.6382    Z=             -2.6379  Tot=             10.0433
 Quadrupole moment (field-independent basis, Debye-Ang):
   XX=            -81.2527   YY=            -51.7923   ZZ=            -45.7957
   XY=              3.1281   XZ=              0.3286   YZ=             -4.5549

 Normal termination of Gaussian 16 at Wed Jan  8 02:01:18 2020.
