 Gaussian 16, Revision A.03,
 Gaussian 16:  AS64L-G16RevA.03 25-Dec-2016

 ----------------------------------------------------------------------
 #p opt=modredundant b3lyp/6-31+g(d) scrf=(smd, solvent=tetrahydrofuran
 )
 ----------------------------------------------------------------------

 -----
 title
 -----
 Symbolic Z-matrix:
 Charge = -1 Multiplicity = 1

 SCF Done:  E(RB3LYP) =  -706.330441727     A.U. after   14 cycles
 SCF Done:  E(RB3LYP) =  -706.358850880     A.U. after   12 cycles
 SCF Done:  E(RB3LYP) =  -706.366534955     A.U. after   12 cycles
 SCF Done:  E(RB3LYP) =  -706.367334015     A.U. after   11 cycles
 SCF Done:  E(RB3LYP) =  -706.367388719     A.U. after   10 cycles
 SCF Done:  E(RB3LYP) =  -706.367404511     A.U. after   10 cycles
 SCF Done:  E(RB3LYP) =  -706.367408317     A.U. after   10 cycles
 SCF Done:  E(RB3LYP) =  -706.367415780     A.U. after   11 cycles
 SCF Done:  E(RB3LYP) =  -706.367424537     A.U. after   11 cycles
 SCF Done:  E(RB3LYP) =  -706.367426173     A.U. after   11 cycles
 SCF Done:  E(RB3LYP) =  -706.367613265     A.U. after   11 cycles
 SCF Done:  E(RB3LYP) =  -706.367637713     A.U. after   11 cycles
 SCF Done:  E(RB3LYP) =  -706.367655437     A.U. after   10 cycles
 SCF Done:  E(RB3LYP) =  -706.367661656     A.U. after   10 cycles
 SCF Done:  E(RB3LYP) =  -706.367672466     A.U. after   11 cycles
 SCF Done:  E(RB3LYP) =  -706.367678367     A.U. after   11 cycles
 SCF Done:  E(RB3LYP) =  -706.367683185     A.U. after   10 cycles
 SCF Done:  E(RB3LYP) =  -706.367690904     A.U. after   11 cycles
 SCF Done:  E(RB3LYP) =  -706.367690901     A.U. after    8 cycles
 SCF Done:  E(RB3LYP) =  -706.367690956     A.U. after    9 cycles
 Optimization completed.
    -- Stationary point found.

                         Standard orientation:
 ---------------------------------------------------------------------
 Center     Atomic      Atomic             Coordinates (Angstroms)
 Number     Number       Type             X           Y           Z
 ---------------------------------------------------------------------
      1          6           0       -0.751567    0.294070    0.249830
      2          8           0       -0.606057    0.568698    1.440668
      3          6           0       -0.824785    1.415085   -0.779587
      4          1           0       -0.416886    1.116455   -1.747759
      5          1           0       -1.884723    1.675849   -0.915471
      6          1           0       -0.291949    2.289958   -0.403074
      7         17           0       -1.034260   -1.099992   -0.226276
      8          6           0        2.075054    0.035129   -0.344447
      9          7           0        3.147462   -0.199670    0.090411
 ---------------------------------------------------------------------

 The electronic state is 1-A.
 Alpha  occ. eigenvalues -- -101.55941 -19.12842 -14.25638 -10.30083 -10.17213
 Alpha  occ. eigenvalues --  -10.12000  -9.48280  -7.24550  -7.23763  -7.23554
 Alpha  occ. eigenvalues --   -1.04775  -0.91460  -0.81218  -0.71887  -0.55670
 Alpha  occ. eigenvalues --   -0.46666  -0.45690  -0.44844  -0.38516  -0.37285
 Alpha  occ. eigenvalues --   -0.34839  -0.31282  -0.30692  -0.26268  -0.26185
 Alpha  occ. eigenvalues --   -0.25398  -0.22882
 Alpha virt. eigenvalues --   -0.01499   0.02875   0.04766   0.05495   0.05956
 Alpha virt. eigenvalues --    0.06922   0.08235   0.08938   0.09232   0.09449
 Alpha virt. eigenvalues --    0.11221   0.11455   0.12126   0.13213   0.13595

 Mulliken charges:
               1
     1  C   -0.460205
     2  O   -0.367832
     3  C   -0.415794
     4  H    0.243650
     5  H    0.241081
     6  H    0.248900
     7  Cl   0.440957
     8  C   -0.295371
     9  N   -0.635386
 Sum of Mulliken charges =  -1.00000

 Dipole moment (field-independent basis, Debye):
    X=            -12.4331    Y=              0.4181    Z=             -2.8525  Tot=             12.7630
 Quadrupole moment (field-independent basis, Debye-Ang):
   XX=            -80.7861   YY=            -44.1269   ZZ=            -50.9546
   XY=              1.6201   XZ=              2.3866   YZ=             -2.0125

 Normal termination of Gaussian 16 at Tue Jan  7 23:08:27 2020.
