 Gaussian 16, Revision A.03,
 Gaussian 16:  AS64L-G16RevA.03 25-Dec-2016

 ----------------------------------------------------------------------
 #p opt=modredundant b3lyp/6-31+g(d) scrf=(smd, solvent=tetrahydrofuran
 )
 ----------------------------------------------------------------------

 -----
 title
 -----
 Symbolic Z-matrix:
 Charge = -1 Multiplicity = 1

 SCF Done:  E(RB3LYP) =  -706.398413543     A.U. after   14 cycles
 SCF Done:  E(RB3LYP) =  -706.421922961     A.U. after   13 cycles
 SCF Done:  E(RB3LYP) =  -706.428526099     A.U. after   13 cycles
 SCF Done:  E(RB3LYP) =  -706.429322550     A.U. after   12 cycles
 SCF Done:  E(RB3LYP) =  -706.429412154     A.U. after   11 cycles
 SCF Done:  E(RB3LYP) =  -706.429429695     A.U. after   10 cycles
 SCF Done:  E(RB3LYP) =  -706.429433291     A.U. after   10 cycles
 SCF Done:  E(RB3LYP) =  -706.429433990     A.U. after    9 cycles
 SCF Done:  E(RB3LYP) =  -706.429434225     A.U. after    9 cycles
 Optimization completed.
    -- Stationary point found.

                         Standard orientation:
 ---------------------------------------------------------------------
 Center     Atomic      Atomic             Coordinates (Angstroms)
 Number     Number       Type             X           Y           Z
 ---------------------------------------------------------------------
      1          6           0        0.175302    0.729981    0.229448
      2          8           0        0.118432    1.155871    1.351146
      3          6           0       -0.075650    1.463711   -1.056435
      4          1           0       -0.105804    0.788957   -1.911358
      5          1           0       -1.016842    2.015318   -0.977874
      6          1           0        0.748860    2.179532   -1.185358
      7         17           0       -1.549521   -0.919547   -0.023617
      8          6           0        1.455541   -0.503230   -0.053710
      9          7           0        2.348147   -1.248749   -0.149843
 ---------------------------------------------------------------------

 The electronic state is 1-A.
 Alpha  occ. eigenvalues -- -101.43798 -19.14501 -14.31821 -10.31930 -10.20711
 Alpha  occ. eigenvalues --  -10.18130  -9.35267  -7.11220  -7.10942  -7.10931
 Alpha  occ. eigenvalues --   -1.05109  -0.87919  -0.74384  -0.69435  -0.55925
 Alpha  occ. eigenvalues --   -0.47459  -0.43578  -0.43295  -0.39047  -0.36128
 Alpha  occ. eigenvalues --   -0.36021  -0.32025  -0.31867  -0.26639  -0.23525
 Alpha  occ. eigenvalues --   -0.23085  -0.22963
 Alpha virt. eigenvalues --   -0.01672   0.02258   0.03420   0.04578   0.05407
 Alpha virt. eigenvalues --    0.06889   0.06942   0.08406   0.09563   0.09954
 Alpha virt. eigenvalues --    0.10404   0.10629   0.11500   0.13232   0.13782

 Mulliken charges:
               1
     1  C    0.297017
     2  O   -0.334856
     3  C   -0.623005
     4  H    0.252910
     5  H    0.253421
     6  H    0.248503
     7  Cl  -0.666478
     8  C    0.189734
     9  N   -0.617247
 Sum of Mulliken charges =  -1.00000

 Dipole moment (field-independent basis, Debye):
    X=              0.6982    Y=              6.0446    Z=             -2.8162  Tot=              6.7049
 Quadrupole moment (field-independent basis, Debye-Ang):
   XX=            -67.2508   YY=            -52.8935   ZZ=            -48.6118
   XY=              1.8575   XZ=              0.6376   YZ=             -5.0972

 Normal termination of Gaussian 16 at Wed Jan  8 01:11:30 2020.
