 Gaussian 16, Revision A.03,
 Gaussian 16:  AS64L-G16RevA.03 25-Dec-2016

 ----------------------------------------------------------------------
 #p opt=modredundant b3lyp/6-31+g(d) scrf=(smd, solvent=tetrahydrofuran
 )
 ----------------------------------------------------------------------

 -----
 title
 -----
 Symbolic Z-matrix:
 Charge = -1 Multiplicity = 1

 SCF Done:  E(RB3LYP) =  -706.384946802     A.U. after   14 cycles
 SCF Done:  E(RB3LYP) =  -706.394075112     A.U. after   12 cycles
 SCF Done:  E(RB3LYP) =  -706.394768085     A.U. after   12 cycles
 SCF Done:  E(RB3LYP) =  -706.394832807     A.U. after   10 cycles
 SCF Done:  E(RB3LYP) =  -706.394846496     A.U. after   10 cycles
 SCF Done:  E(RB3LYP) =  -706.394852034     A.U. after   10 cycles
 SCF Done:  E(RB3LYP) =  -706.394857905     A.U. after   10 cycles
 SCF Done:  E(RB3LYP) =  -706.394859172     A.U. after    9 cycles
 Optimization completed.
    -- Stationary point found.

                         Standard orientation:
 ---------------------------------------------------------------------
 Center     Atomic      Atomic             Coordinates (Angstroms)
 Number     Number       Type             X           Y           Z
 ---------------------------------------------------------------------
      1          6           0       -0.357350    0.405437    0.242407
      2          8           0       -0.382098    0.749703    1.424651
      3          6           0       -0.401767    1.440905   -0.877863
      4          1           0       -0.150845    1.014085   -1.851638
      5          1           0       -1.422411    1.848316   -0.916361
      6          1           0        0.291923    2.251873   -0.640443
      7         17           0       -1.179309   -1.021618   -0.179372
      8          6           0        1.610808   -0.227076   -0.126753
      9          7           0        2.753747   -0.494284   -0.052314
 ---------------------------------------------------------------------

 The electronic state is 1-A.
 Alpha  occ. eigenvalues -- -101.51779 -19.10013 -14.27717 -10.29868 -10.16583
 Alpha  occ. eigenvalues --  -10.14743  -9.43675  -7.19965  -7.19133  -7.19081
 Alpha  occ. eigenvalues --   -1.01257  -0.83798  -0.83328  -0.70817  -0.52896
 Alpha  occ. eigenvalues --   -0.45280  -0.43891  -0.41574  -0.37097  -0.36668
 Alpha  occ. eigenvalues --   -0.34152  -0.29751  -0.29080  -0.28099  -0.27211
 Alpha  occ. eigenvalues --   -0.23851  -0.22813
 Alpha virt. eigenvalues --    0.00674   0.03118   0.04979   0.05870   0.06303
 Alpha virt. eigenvalues --    0.07386   0.08294   0.08788   0.09440   0.09849
 Alpha virt. eigenvalues --    0.10455   0.10915   0.12338   0.13823   0.13894

 Mulliken charges:
               1
     1  C   -0.104944
     2  O   -0.402666
     3  C   -0.496753
     4  H    0.232457
     5  H    0.226144
     6  H    0.237362
     7  Cl   0.065936
     8  C   -0.064688
     9  N   -0.692847
 Sum of Mulliken charges =  -1.00000

 Dipole moment (field-independent basis, Debye):
    X=             -6.7945    Y=              1.9274    Z=             -3.1970  Tot=              7.7524
 Quadrupole moment (field-independent basis, Debye-Ang):
   XX=            -70.6656   YY=            -46.9535   ZZ=            -50.7894
   XY=              3.5860   XZ=              2.0249   YZ=             -3.5749

 Normal termination of Gaussian 16 at Tue Jan  7 23:22:04 2020.
