 Gaussian 16, Revision A.03,
 Gaussian 16:  AS64L-G16RevA.03 25-Dec-2016

 ----------------------------------------------------------------------
 #p opt=modredundant b3lyp/6-31+g(d) scrf=(smd, solvent=tetrahydrofuran
 )
 ----------------------------------------------------------------------

 -----
 title
 -----
 Symbolic Z-matrix:
 Charge = -1 Multiplicity = 1

 SCF Done:  E(RB3LYP) =  -706.389962784     A.U. after   14 cycles
 SCF Done:  E(RB3LYP) =  -706.403764163     A.U. after   12 cycles
 SCF Done:  E(RB3LYP) =  -706.405146776     A.U. after   12 cycles
 SCF Done:  E(RB3LYP) =  -706.405257812     A.U. after   11 cycles
 SCF Done:  E(RB3LYP) =  -706.405282237     A.U. after   10 cycles
 SCF Done:  E(RB3LYP) =  -706.405290803     A.U. after   10 cycles
 SCF Done:  E(RB3LYP) =  -706.405298533     A.U. after   10 cycles
 SCF Done:  E(RB3LYP) =  -706.405302563     A.U. after   10 cycles
 SCF Done:  E(RB3LYP) =  -706.405303051     A.U. after    9 cycles
 Optimization completed.
    -- Stationary point found.

                         Standard orientation:
 ---------------------------------------------------------------------
 Center     Atomic      Atomic             Coordinates (Angstroms)
 Number     Number       Type             X           Y           Z
 ---------------------------------------------------------------------
      1          6           0       -0.380537    0.477272    0.248266
      2          8           0       -0.411551    0.831801    1.408683
      3          6           0       -0.417130    1.430425   -0.929269
      4          1           0       -0.140839    0.943039   -1.865116
      5          1           0       -1.443037    1.816865   -1.011494
      6          1           0        0.260697    2.264730   -0.729238
      7         17           0       -1.198736   -1.073988   -0.156877
      8          6           0        1.681631   -0.203003   -0.104844
      9          7           0        2.812901   -0.521344   -0.040233
 ---------------------------------------------------------------------

 The electronic state is 1-A.
 Alpha  occ. eigenvalues -- -101.51127 -19.12170 -14.27371 -10.30815 -10.17262
 Alpha  occ. eigenvalues --  -10.14249  -9.42884  -7.19157  -7.18365  -7.18321
 Alpha  occ. eigenvalues --   -1.03203  -0.83160  -0.81496  -0.71594  -0.52592
 Alpha  occ. eigenvalues --   -0.44877  -0.44409  -0.42353  -0.37510  -0.36717
 Alpha  occ. eigenvalues --   -0.34287  -0.29576  -0.28884  -0.27790  -0.27229
 Alpha  occ. eigenvalues --   -0.24981  -0.23486
 Alpha virt. eigenvalues --    0.00028   0.02859   0.04659   0.05416   0.06175
 Alpha virt. eigenvalues --    0.06718   0.08378   0.08822   0.09267   0.09815
 Alpha virt. eigenvalues --    0.10625   0.10898   0.11933   0.13531   0.13823

 Mulliken charges:
               1
     1  C   -0.113617
     2  O   -0.339402
     3  C   -0.481686
     4  H    0.242736
     5  H    0.234821
     6  H    0.243590
     7  Cl  -0.009922
     8  C   -0.085332
     9  N   -0.691189
 Sum of Mulliken charges =  -1.00000

 Dipole moment (field-independent basis, Debye):
    X=             -7.1889    Y=              2.7306    Z=             -2.9277  Tot=              8.2285
 Quadrupole moment (field-independent basis, Debye-Ang):
   XX=            -72.8424   YY=            -47.2345   ZZ=            -49.8158
   XY=              3.3598   XZ=              1.8692   YZ=             -3.7267

 Normal termination of Gaussian 16 at Tue Jan  7 23:51:44 2020.
