 Gaussian 16, Revision A.03,
 Gaussian 16:  AS64L-G16RevA.03 25-Dec-2016

 ----------------------------------------------------------------------
 #p opt=modredundant b3lyp/6-31+g(d) scrf=(smd, solvent=tetrahydrofuran
 )
 ----------------------------------------------------------------------

 -----
 title
 -----
 Symbolic Z-matrix:
 Charge = -1 Multiplicity = 1

 SCF Done:  E(RB3LYP) =  -706.368555138     A.U. after   14 cycles
 SCF Done:  E(RB3LYP) =  -706.399336186     A.U. after   12 cycles
 SCF Done:  E(RB3LYP) =  -706.407548203     A.U. after   12 cycles
 SCF Done:  E(RB3LYP) =  -706.410404070     A.U. after   12 cycles
 SCF Done:  E(RB3LYP) =  -706.410619264     A.U. after   11 cycles
 SCF Done:  E(RB3LYP) =  -706.410638346     A.U. after   10 cycles
 SCF Done:  E(RB3LYP) =  -706.410652561     A.U. after   10 cycles
 SCF Done:  E(RB3LYP) =  -706.410665522     A.U. after   10 cycles
 SCF Done:  E(RB3LYP) =  -706.410668686     A.U. after    9 cycles
 SCF Done:  E(RB3LYP) =  -706.410669096     A.U. after    9 cycles
 Optimization completed.
    -- Stationary point found.

                         Standard orientation:
 ---------------------------------------------------------------------
 Center     Atomic      Atomic             Coordinates (Angstroms)
 Number     Number       Type             X           Y           Z
 ---------------------------------------------------------------------
      1          6           0        0.134772    0.853104    0.239659
      2          8           0        0.047184    1.223602    1.346393
      3          6           0       -0.043655    1.423857   -1.117526
      4          1           0       -0.042789    0.645514   -1.876284
      5          1           0       -0.984664    1.982674   -1.136298
      6          1           0        0.800183    2.108116   -1.281723
      7         17           0       -1.714701   -0.954958   -0.025601
      8          6           0        1.701249   -0.521366   -0.019145
      9          7           0        2.606503   -1.260630   -0.094221
 ---------------------------------------------------------------------

 The electronic state is 1-A.
 Alpha  occ. eigenvalues -- -101.43209 -19.19890 -14.30156 -10.34726 -10.20224
 Alpha  occ. eigenvalues --  -10.18251  -9.34599  -7.10512  -7.10304  -7.10298
 Alpha  occ. eigenvalues --   -1.10567  -0.86011  -0.76405  -0.68637  -0.54728
 Alpha  occ. eigenvalues --   -0.48357  -0.46695  -0.45899  -0.39701  -0.38834
 Alpha  occ. eigenvalues --   -0.36846  -0.30473  -0.30366  -0.27874  -0.23156
 Alpha  occ. eigenvalues --   -0.22624  -0.22603
 Alpha virt. eigenvalues --   -0.03913  -0.00227   0.02706   0.04979   0.05054
 Alpha virt. eigenvalues --    0.05979   0.06933   0.07739   0.08960   0.10015
 Alpha virt. eigenvalues --    0.10227   0.10403   0.10892   0.12814   0.13581

 Mulliken charges:
               1
     1  C    0.418964
     2  O   -0.220986
     3  C   -0.627079
     4  H    0.284096
     5  H    0.271342
     6  H    0.272800
     7  Cl  -0.754954
     8  C   -0.016462
     9  N   -0.627721
 Sum of Mulliken charges =  -1.00000

 Dipole moment (field-independent basis, Debye):
    X=              0.0478    Y=              8.4560    Z=             -2.5924  Tot=              8.8446
 Quadrupole moment (field-independent basis, Debye-Ang):
   XX=            -75.7249   YY=            -51.9884   ZZ=            -46.6752
   XY=              2.5240   XZ=              0.6266   YZ=             -4.6975

 Normal termination of Gaussian 16 at Wed Jan  8 01:38:24 2020.
