 Gaussian 16, Revision A.03,
 Gaussian 16:  AS64L-G16RevA.03 25-Dec-2016

 ----------------------------------------------------------------------
 #p opt=modredundant b3lyp/6-31+g(d) scrf=(smd, solvent=tetrahydrofuran
 )
 ----------------------------------------------------------------------

 -----
 title
 -----
 Symbolic Z-matrix:
 Charge = -1 Multiplicity = 1

 SCF Done:  E(RB3LYP) =  -706.347681265     A.U. after   15 cycles
 SCF Done:  E(RB3LYP) =  -706.383801854     A.U. after   13 cycles
 SCF Done:  E(RB3LYP) =  -706.396928387     A.U. after   13 cycles
 SCF Done:  E(RB3LYP) =  -706.403547777     A.U. after   12 cycles
 SCF Done:  E(RB3LYP) =  -706.404891915     A.U. after   12 cycles
 SCF Done:  E(RB3LYP) =  -706.405105309     A.U. after   11 cycles
 SCF Done:  E(RB3LYP) =  -706.405138964     A.U. after   11 cycles
 SCF Done:  E(RB3LYP) =  -706.405156042     A.U. after   11 cycles
 SCF Done:  E(RB3LYP) =  -706.405162757     A.U. after   10 cycles
 SCF Done:  E(RB3LYP) =  -706.405163326     A.U. after    9 cycles
 SCF Done:  E(RB3LYP) =  -706.405163236     A.U. after    8 cycles
 SCF Done:  E(RB3LYP) =  -706.405162965     A.U. after    9 cycles
 Optimization completed.
    -- Stationary point found.

                         Standard orientation:
 ---------------------------------------------------------------------
 Center     Atomic      Atomic             Coordinates (Angstroms)
 Number     Number       Type             X           Y           Z
 ---------------------------------------------------------------------
      1          6           0        0.349525    0.926878    0.227700
      2          8           0        0.237510    1.248314    1.332639
      3          6           0        0.133917    1.344951   -1.162754
      4          1           0       -0.032027    0.478770   -1.799498
      5          1           0       -0.724350    2.024223   -1.187204
      6          1           0        1.049345    1.865681   -1.475597
      7         17           0       -2.078315   -0.820377   -0.001843
      8          6           0        1.864912   -0.651470   -0.001255
      9          7           0        2.721169   -1.447276   -0.078518
 ---------------------------------------------------------------------

 The electronic state is 1-A.
 Alpha  occ. eigenvalues -- -101.41797 -19.23664 -14.30294 -10.36916 -10.21748
 Alpha  occ. eigenvalues --  -10.18262  -9.33136  -7.08960  -7.08897  -7.08891
 Alpha  occ. eigenvalues --   -1.14275  -0.86073  -0.78432  -0.67063  -0.56397
 Alpha  occ. eigenvalues --   -0.49985  -0.49078  -0.48124  -0.41073  -0.40805
 Alpha  occ. eigenvalues --   -0.37924  -0.30529  -0.30471  -0.28505  -0.21793
 Alpha  occ. eigenvalues --   -0.21542  -0.21508
 Alpha virt. eigenvalues --   -0.05172  -0.03042   0.02371   0.04597   0.04735
 Alpha virt. eigenvalues --    0.05575   0.06684   0.07408   0.08741   0.09843
 Alpha virt. eigenvalues --    0.09950   0.10196   0.10758   0.12612   0.13391

 Mulliken charges:
               1
     1  C    0.580143
     2  O   -0.192098
     3  C   -0.691191
     4  H    0.310941
     5  H    0.285446
     6  H    0.293424
     7  Cl  -0.895830
     8  C   -0.075460
     9  N   -0.615373
 Sum of Mulliken charges =  -1.00000

 Dipole moment (field-independent basis, Debye):
    X=              2.5817    Y=              9.8942    Z=             -2.7537  Tot=             10.5898
 Quadrupole moment (field-independent basis, Debye-Ang):
   XX=            -85.3647   YY=            -51.8639   ZZ=            -45.4565
   XY=              3.5738   XZ=              0.1467   YZ=             -4.4368

 Normal termination of Gaussian 16 at Wed Jan  8 02:27:30 2020.
