 Gaussian 16, Revision A.03,
 Gaussian 16:  AS64L-G16RevA.03 25-Dec-2016

 ----------------------------------------------------------------------
 #p opt=modredundant b3lyp/6-31+g(d) scrf=(smd, solvent=tetrahydrofuran
 )
 ----------------------------------------------------------------------

 -----
 title
 -----
 Symbolic Z-matrix:
 Charge = -1 Multiplicity = 1

 SCF Done:  E(RB3LYP) =  -706.395516287     A.U. after   14 cycles
 SCF Done:  E(RB3LYP) =  -706.426319624     A.U. after   13 cycles
 SCF Done:  E(RB3LYP) =  -706.446969722     A.U. after   13 cycles
 SCF Done:  E(RB3LYP) =  -706.449905752     A.U. after   12 cycles
 SCF Done:  E(RB3LYP) =  -706.450267716     A.U. after   11 cycles
 SCF Done:  E(RB3LYP) =  -706.450132620     A.U. after   13 cycles
 SCF Done:  E(RB3LYP) =  -706.450430022     A.U. after   10 cycles
 SCF Done:  E(RB3LYP) =  -706.450462113     A.U. after   10 cycles
 SCF Done:  E(RB3LYP) =  -706.450491182     A.U. after   11 cycles
 SCF Done:  E(RB3LYP) =  -706.450494407     A.U. after    9 cycles
 SCF Done:  E(RB3LYP) =  -706.450494717     A.U. after    8 cycles
 Optimization completed.
    -- Stationary point found.

                         Standard orientation:
 ---------------------------------------------------------------------
 Center     Atomic      Atomic             Coordinates (Angstroms)
 Number     Number       Type             X           Y           Z
 ---------------------------------------------------------------------
      1          6           0       -0.823959   -0.572367    0.192097
      2          8           0       -0.964477   -0.978985    1.319224
      3          6           0       -0.678246   -1.382940   -1.056084
      4          1           0       -0.088301   -0.857453   -1.808084
      5          1           0       -0.223659   -2.347708   -0.817428
      6          1           0       -1.689346   -1.552233   -1.456532
      7         17           0        2.064819    0.222447    0.039663
      8          6           0       -1.081897    0.985185   -0.067711
      9          7           0       -1.411454    2.089772   -0.222263
 ---------------------------------------------------------------------

 The electronic state is 1-A.
 Alpha  occ. eigenvalues -- -101.41574 -19.16556 -14.34318 -10.32319 -10.23442
 Alpha  occ. eigenvalues --  -10.18461  -9.32918  -7.08740  -7.08677  -7.08674
 Alpha  occ. eigenvalues --   -1.06684  -0.90462  -0.75384  -0.66866  -0.61549
 Alpha  occ. eigenvalues --   -0.49138  -0.44902  -0.44484  -0.39966  -0.37617
 Alpha  occ. eigenvalues --   -0.37138  -0.33943  -0.33731  -0.27970  -0.21466
 Alpha  occ. eigenvalues --   -0.21305  -0.21302
 Alpha virt. eigenvalues --   -0.05083   0.02281   0.02885   0.03940   0.05576
 Alpha virt. eigenvalues --    0.06666   0.07154   0.08689   0.09479   0.10155
 Alpha virt. eigenvalues --    0.10553   0.10679   0.12034   0.13424   0.13528

 Mulliken charges:
               1
     1  C    0.409920
     2  O   -0.357466
     3  C   -0.699422
     4  H    0.264155
     5  H    0.255324
     6  H    0.261519
     7  Cl  -0.896757
     8  C    0.316601
     9  N   -0.553873
 Sum of Mulliken charges =  -1.00000

 Dipole moment (field-independent basis, Debye):
    X=             -7.3736    Y=             -4.8004    Z=             -3.0178  Tot=              9.3016
 Quadrupole moment (field-independent basis, Debye-Ang):
   XX=            -68.4273   YY=            -55.0461   ZZ=            -48.2842
   XY=              3.3329   XZ=              1.9888   YZ=              4.9290

 Normal termination of Gaussian 16 at Wed Jan  8 02:21:47 2020.
