 Gaussian 16, Revision A.03,
 Gaussian 16:  AS64L-G16RevA.03 25-Dec-2016

 ----------------------------------------------------------------------
 #p opt=modredundant b3lyp/6-31+g(d) scrf=(smd, solvent=tetrahydrofuran
 )
 ----------------------------------------------------------------------

 -----
 title
 -----
 Symbolic Z-matrix:
 Charge = -1 Multiplicity = 1

 SCF Done:  E(RB3LYP) =  -706.368356395     A.U. after   14 cycles
 SCF Done:  E(RB3LYP) =  -706.399643328     A.U. after   12 cycles
 SCF Done:  E(RB3LYP) =  -706.405655439     A.U. after   12 cycles
 SCF Done:  E(RB3LYP) =  -706.407243003     A.U. after   12 cycles
 SCF Done:  E(RB3LYP) =  -706.407326386     A.U. after   11 cycles
 SCF Done:  E(RB3LYP) =  -706.407338885     A.U. after   10 cycles
 SCF Done:  E(RB3LYP) =  -706.407345662     A.U. after   10 cycles
 SCF Done:  E(RB3LYP) =  -706.407346367     A.U. after    9 cycles
 SCF Done:  E(RB3LYP) =  -706.407346704     A.U. after    9 cycles
 SCF Done:  E(RB3LYP) =  -706.407347255     A.U. after    9 cycles
 SCF Done:  E(RB3LYP) =  -706.407348371     A.U. after    9 cycles
 SCF Done:  E(RB3LYP) =  -706.407349388     A.U. after   10 cycles
 SCF Done:  E(RB3LYP) =  -706.407349899     A.U. after    9 cycles
 SCF Done:  E(RB3LYP) =  -706.407350116     A.U. after    8 cycles
 SCF Done:  E(RB3LYP) =  -706.407350174     A.U. after    8 cycles
 SCF Done:  E(RB3LYP) =  -706.407350143     A.U. after    8 cycles
 Optimization completed.
    -- Stationary point found.

                         Standard orientation:
 ---------------------------------------------------------------------
 Center     Atomic      Atomic             Coordinates (Angstroms)
 Number     Number       Type             X           Y           Z
 ---------------------------------------------------------------------
      1          6           0       -0.355832    0.729886    0.257529
      2          8           0       -0.315277    1.046029    1.380753
      3          6           0       -0.250928    1.392460   -1.065998
      4          1           0       -0.000163    0.679825   -1.847157
      5          1           0       -1.231064    1.841764   -1.273979
      6          1           0        0.511308    2.174272   -0.991895
      7         17           0       -1.568581   -1.071519   -0.094867
      8          6           0        1.991941   -0.345946   -0.043379
      9          7           0        3.085275   -0.786667   -0.029880
 ---------------------------------------------------------------------

 The electronic state is 1-A.
 Alpha  occ. eigenvalues -- -101.48236 -19.20518 -14.26622 -10.34809 -10.20399
 Alpha  occ. eigenvalues --  -10.13230  -9.39696  -7.15838  -7.15279  -7.15251
 Alpha  occ. eigenvalues --   -1.11199  -0.82258  -0.77362  -0.73375  -0.54467
 Alpha  occ. eigenvalues --   -0.47091  -0.46914  -0.46589  -0.39362  -0.39112
 Alpha  occ. eigenvalues --   -0.35543  -0.27812  -0.27422  -0.27166  -0.26687
 Alpha  occ. eigenvalues --   -0.26454  -0.23836
 Alpha virt. eigenvalues --   -0.04092  -0.01028   0.02975   0.04904   0.05383
 Alpha virt. eigenvalues --    0.05724   0.08079   0.08466   0.08936   0.09718
 Alpha virt. eigenvalues --    0.10261   0.11125   0.11290   0.12872   0.13496

 Mulliken charges:
               1
     1  C    0.209353
     2  O   -0.189273
     3  C   -0.573289
     4  H    0.289967
     5  H    0.273212
     6  H    0.273592
     7  Cl  -0.399938
     8  C   -0.218350
     9  N   -0.665275
 Sum of Mulliken charges =  -1.00000

 Dipole moment (field-independent basis, Debye):
    X=             -7.7185    Y=              6.8955    Z=             -2.4432  Tot=             10.6345
 Quadrupole moment (field-independent basis, Debye-Ang):
   XX=            -84.3248   YY=            -47.9962   ZZ=            -46.6634
   XY=              3.6425   XZ=              0.9166   YZ=             -4.0082

 Normal termination of Gaussian 16 at Wed Jan  8 01:02:21 2020.
