 Gaussian 16, Revision A.03,
 Gaussian 16:  AS64L-G16RevA.03 25-Dec-2016

 ----------------------------------------------------------------------
 #p opt=modredundant b3lyp/6-31+g(d) scrf=(smd, solvent=tetrahydrofuran
 )
 ----------------------------------------------------------------------

 -----
 title
 -----
 Symbolic Z-matrix:
 Charge = -1 Multiplicity = 1

 SCF Done:  E(RB3LYP) =  -706.380867033     A.U. after   14 cycles
 SCF Done:  E(RB3LYP) =  -706.408005459     A.U. after   12 cycles
 SCF Done:  E(RB3LYP) =  -706.413802493     A.U. after   12 cycles
 SCF Done:  E(RB3LYP) =  -706.414647906     A.U. after   12 cycles
 SCF Done:  E(RB3LYP) =  -706.414776946     A.U. after   10 cycles
 SCF Done:  E(RB3LYP) =  -706.414784761     A.U. after   10 cycles
 SCF Done:  E(RB3LYP) =  -706.414788672     A.U. after   10 cycles
 SCF Done:  E(RB3LYP) =  -706.414792006     A.U. after   10 cycles
 SCF Done:  E(RB3LYP) =  -706.414796663     A.U. after   10 cycles
 SCF Done:  E(RB3LYP) =  -706.414799395     A.U. after   10 cycles
 SCF Done:  E(RB3LYP) =  -706.414813378     A.U. after   11 cycles
 SCF Done:  E(RB3LYP) =  -706.414812269     A.U. after    9 cycles
 SCF Done:  E(RB3LYP) =  -706.414824908     A.U. after   11 cycles
 SCF Done:  E(RB3LYP) =  -706.414812412     A.U. after   11 cycles
 SCF Done:  E(RB3LYP) =  -706.414812763     A.U. after    9 cycles
 SCF Done:  E(RB3LYP) =  -706.414824714     A.U. after   11 cycles
 SCF Done:  E(RB3LYP) =  -706.414813016     A.U. after   11 cycles
 SCF Done:  E(RB3LYP) =  -706.414813392     A.U. after    8 cycles
 SCF Done:  E(RB3LYP) =  -706.414824935     A.U. after   11 cycles
 SCF Done:  E(RB3LYP) =  -706.414812864     A.U. after   11 cycles
 Optimization completed.
    -- Stationary point found.

                         Standard orientation:
 ---------------------------------------------------------------------
 Center     Atomic      Atomic             Coordinates (Angstroms)
 Number     Number       Type             X           Y           Z
 ---------------------------------------------------------------------
      1          6           0       -0.547294    0.562340    0.269379
      2          8           0       -0.424375    0.841610    1.416739
      3          6           0       -0.503293    1.443235   -0.938834
      4          1           0       -0.177888    0.898605   -1.823554
      5          1           0       -1.524585    1.815923   -1.101710
      6          1           0        0.163709    2.285266   -0.739137
      7         17           0       -1.332718   -1.116901   -0.146863
      8          6           0        2.006907   -0.183846   -0.188077
      9          7           0        3.121722   -0.525105   -0.003950
 ---------------------------------------------------------------------

 The electronic state is 1-A.
 Alpha  occ. eigenvalues -- -101.51657 -19.17116 -14.25960 -10.32937 -10.18877
 Alpha  occ. eigenvalues --  -10.12366  -9.43287  -7.19547  -7.18802  -7.18735
 Alpha  occ. eigenvalues --   -1.07920  -0.81569  -0.80880  -0.73596  -0.53646
 Alpha  occ. eigenvalues --   -0.46548  -0.45274  -0.45078  -0.38809  -0.37445
 Alpha  occ. eigenvalues --   -0.34987  -0.29800  -0.29545  -0.27780  -0.26531
 Alpha  occ. eigenvalues --   -0.26501  -0.23097
 Alpha virt. eigenvalues --   -0.01920   0.01271   0.03426   0.04896   0.05459
 Alpha virt. eigenvalues --    0.05963   0.08453   0.08724   0.09059   0.09593
 Alpha virt. eigenvalues --    0.10692   0.11348   0.11433   0.13217   0.13553

 Mulliken charges:
               1
     1  C   -0.095255
     2  O   -0.243581
     3  C   -0.511168
     4  H    0.271027
     5  H    0.258225
     6  H    0.260674
     7  Cl  -0.047921
     8  C   -0.230997
     9  N   -0.661005
 Sum of Mulliken charges =  -1.00000

 Dipole moment (field-independent basis, Debye):
    X=            -10.4616    Y=              4.1658    Z=             -2.3363  Tot=             11.5003
 Quadrupole moment (field-independent basis, Debye-Ang):
   XX=            -82.3565   YY=            -46.1620   ZZ=            -48.4302
   XY=              2.9452   XZ=              1.6402   YZ=             -3.3901

 Normal termination of Gaussian 16 at Wed Jan  8 00:32:21 2020.
