 Gaussian 16, Revision A.03,
 Gaussian 16:  AS64L-G16RevA.03 25-Dec-2016

 ----------------------------------------------------------------------
 #p opt=modredundant b3lyp/6-31+g(d) scrf=(smd, solvent=tetrahydrofuran
 )
 ----------------------------------------------------------------------

 -----
 title
 -----
 Symbolic Z-matrix:
 Charge = -1 Multiplicity = 1

 SCF Done:  E(RB3LYP) =  -706.342186095     A.U. after   14 cycles
 SCF Done:  E(RB3LYP) =  -706.379787723     A.U. after   13 cycles
 SCF Done:  E(RB3LYP) =  -706.390931412     A.U. after   12 cycles
 SCF Done:  E(RB3LYP) =  -706.395549807     A.U. after   11 cycles
 SCF Done:  E(RB3LYP) =  -706.396308531     A.U. after   11 cycles
 SCF Done:  E(RB3LYP) =  -706.396386207     A.U. after   10 cycles
 SCF Done:  E(RB3LYP) =  -706.396420037     A.U. after   10 cycles
 SCF Done:  E(RB3LYP) =  -706.396424704     A.U. after    9 cycles
 SCF Done:  E(RB3LYP) =  -706.396427640     A.U. after    9 cycles
 SCF Done:  E(RB3LYP) =  -706.396432946     A.U. after   10 cycles
 SCF Done:  E(RB3LYP) =  -706.396437257     A.U. after   10 cycles
 SCF Done:  E(RB3LYP) =  -706.396438386     A.U. after    9 cycles
 SCF Done:  E(RB3LYP) =  -706.396438923     A.U. after    9 cycles
 SCF Done:  E(RB3LYP) =  -706.396439509     A.U. after    8 cycles
 SCF Done:  E(RB3LYP) =  -706.396440091     A.U. after    8 cycles
 SCF Done:  E(RB3LYP) =  -706.396440455     A.U. after    8 cycles
 Optimization completed.
    -- Stationary point found.

                         Standard orientation:
 ---------------------------------------------------------------------
 Center     Atomic      Atomic             Coordinates (Angstroms)
 Number     Number       Type             X           Y           Z
 ---------------------------------------------------------------------
      1          6           0       -0.153290    0.900935    0.244423
      2          8           0       -0.124377    1.158384    1.362196
      3          6           0       -0.089290    1.312218   -1.156756
      4          1           0        0.044619    0.452780   -1.808319
      5          1           0       -1.038004    1.816547   -1.379842
      6          1           0        0.753980    2.008168   -1.245006
      7         17           0       -1.918476   -0.986297   -0.042756
      8          6           0        2.151789   -0.483682    0.000597
      9          7           0        3.199037   -1.022048   -0.038161
 ---------------------------------------------------------------------

 The electronic state is 1-A.
 Alpha  occ. eigenvalues -- -101.44990 -19.25692 -14.27038 -10.37993 -10.22754
 Alpha  occ. eigenvalues --  -10.13770  -9.36341  -7.12320  -7.12021  -7.12007
 Alpha  occ. eigenvalues --   -1.16245  -0.82670  -0.79578  -0.70199  -0.57178
 Alpha  occ. eigenvalues --   -0.50318  -0.49800  -0.49224  -0.42046  -0.41752
 Alpha  occ. eigenvalues --   -0.36063  -0.27576  -0.27547  -0.25332  -0.24672
 Alpha  occ. eigenvalues --   -0.24006  -0.23899
 Alpha virt. eigenvalues --   -0.06652  -0.03740   0.02417   0.04736   0.05093
 Alpha virt. eigenvalues --    0.05252   0.07577   0.07923   0.08705   0.09686
 Alpha virt. eigenvalues --    0.09908   0.11002   0.11282   0.12581   0.13289

 Mulliken charges:
               1
     1  C    0.433348
     2  O   -0.140765
     3  C   -0.613653
     4  H    0.324163
     5  H    0.300910
     6  H    0.299556
     7  Cl  -0.694725
     8  C   -0.253152
     9  N   -0.655681
 Sum of Mulliken charges =  -1.00000

 Dipole moment (field-independent basis, Debye):
    X=             -5.0684    Y=              9.9438    Z=             -2.6251  Tot=             11.4655
 Quadrupole moment (field-independent basis, Debye-Ang):
   XX=            -93.9454   YY=            -48.8162   ZZ=            -44.7609
   XY=              3.7428   XZ=              0.4210   YZ=             -4.0683

 Normal termination of Gaussian 16 at Wed Jan  8 01:43:13 2020.
