 Gaussian 16, Revision A.03,
 Gaussian 16:  AS64L-G16RevA.03 25-Dec-2016

 ----------------------------------------------------------------------
 #p opt=modredundant b3lyp/6-31+g(d) scrf=(smd, solvent=tetrahydrofuran
 )
 ----------------------------------------------------------------------

 -----
 title
 -----
 Symbolic Z-matrix:
 Charge = -1 Multiplicity = 1

 SCF Done:  E(RB3LYP) =  -706.364065417     A.U. after   14 cycles
 SCF Done:  E(RB3LYP) =  -706.397456043     A.U. after   12 cycles
 SCF Done:  E(RB3LYP) =  -706.405183408     A.U. after   12 cycles
 SCF Done:  E(RB3LYP) =  -706.407932617     A.U. after   12 cycles
 SCF Done:  E(RB3LYP) =  -706.408149106     A.U. after   11 cycles
 SCF Done:  E(RB3LYP) =  -706.408177743     A.U. after    9 cycles
 SCF Done:  E(RB3LYP) =  -706.408209581     A.U. after   11 cycles
 SCF Done:  E(RB3LYP) =  -706.408219951     A.U. after   10 cycles
 SCF Done:  E(RB3LYP) =  -706.408221721     A.U. after    9 cycles
 SCF Done:  E(RB3LYP) =  -706.408222290     A.U. after    9 cycles
 SCF Done:  E(RB3LYP) =  -706.408222370     A.U. after    9 cycles
 SCF Done:  E(RB3LYP) =  -706.408222299     A.U. after    9 cycles
 SCF Done:  E(RB3LYP) =  -706.408222321     A.U. after    8 cycles
 SCF Done:  E(RB3LYP) =  -706.408222257     A.U. after    8 cycles
 Optimization completed.
    -- Stationary point found.

                         Standard orientation:
 ---------------------------------------------------------------------
 Center     Atomic      Atomic             Coordinates (Angstroms)
 Number     Number       Type             X           Y           Z
 ---------------------------------------------------------------------
      1          6           0       -0.423442    0.734125    0.263435
      2          8           0       -0.320088    1.010427    1.389750
      3          6           0       -0.270931    1.382539   -1.057787
      4          1           0       -0.002092    0.656793   -1.821559
      5          1           0       -1.242585    1.830710   -1.303817
      6          1           0        0.493196    2.160492   -0.968312
      7         17           0       -1.647532   -1.057590   -0.099004
      8          6           0        2.128625   -0.369095   -0.068011
      9          7           0        3.244960   -0.748255   -0.023867
 ---------------------------------------------------------------------

 The electronic state is 1-A.
 Alpha  occ. eigenvalues -- -101.48748 -19.21580 -14.26248 -10.35340 -10.20807
 Alpha  occ. eigenvalues --  -10.12732  -9.40197  -7.16349  -7.15779  -7.15743
 Alpha  occ. eigenvalues --   -1.12199  -0.81848  -0.77942  -0.73850  -0.55027
 Alpha  occ. eigenvalues --   -0.47772  -0.47533  -0.47027  -0.39867  -0.39661
 Alpha  occ. eigenvalues --   -0.35362  -0.28315  -0.27422  -0.26937  -0.26790
 Alpha  occ. eigenvalues --   -0.26707  -0.23542
 Alpha virt. eigenvalues --   -0.04311  -0.02038   0.02887   0.04787   0.05234
 Alpha virt. eigenvalues --    0.05614   0.08065   0.08289   0.08898   0.09641
 Alpha virt. eigenvalues --    0.10112   0.11284   0.11462   0.12817   0.13396

 Mulliken charges:
               1
     1  C    0.292682
     2  O   -0.190852
     3  C   -0.634177
     4  H    0.297703
     5  H    0.279912
     6  H    0.277614
     7  Cl  -0.396247
     8  C   -0.266641
     9  N   -0.659995
 Sum of Mulliken charges =  -1.00000

 Dipole moment (field-independent basis, Debye):
    X=             -8.9692    Y=              7.0774    Z=             -2.3701  Tot=             11.6685
 Quadrupole moment (field-independent basis, Debye-Ang):
   XX=            -89.1532   YY=            -47.2818   ZZ=            -46.4393
   XY=              3.6878   XZ=              0.9272   YZ=             -3.8736

 Normal termination of Gaussian 16 at Wed Jan  8 01:01:24 2020.
