 Gaussian 16, Revision A.03,
 Gaussian 16:  AS64L-G16RevA.03 25-Dec-2016

 ----------------------------------------------------------------------
 #p opt=modredundant b3lyp/6-31+g(d) scrf=(smd, solvent=tetrahydrofuran
 )
 ----------------------------------------------------------------------

 -----
 title
 -----
 Symbolic Z-matrix:
 Charge = -1 Multiplicity = 1

 SCF Done:  E(RB3LYP) =  -706.363283323     A.U. after   14 cycles
 SCF Done:  E(RB3LYP) =  -706.395067302     A.U. after   12 cycles
 SCF Done:  E(RB3LYP) =  -706.401396935     A.U. after   12 cycles
 SCF Done:  E(RB3LYP) =  -706.403131747     A.U. after   11 cycles
 SCF Done:  E(RB3LYP) =  -706.403232397     A.U. after   11 cycles
 SCF Done:  E(RB3LYP) =  -706.403267895     A.U. after   10 cycles
 SCF Done:  E(RB3LYP) =  -706.403304066     A.U. after   11 cycles
 SCF Done:  E(RB3LYP) =  -706.403326500     A.U. after   11 cycles
 SCF Done:  E(RB3LYP) =  -706.403334470     A.U. after   10 cycles
 SCF Done:  E(RB3LYP) =  -706.403341192     A.U. after   10 cycles
 SCF Done:  E(RB3LYP) =  -706.403344955     A.U. after    9 cycles
 SCF Done:  E(RB3LYP) =  -706.403346935     A.U. after    9 cycles
 SCF Done:  E(RB3LYP) =  -706.403347983     A.U. after    9 cycles
 Optimization completed.
    -- Stationary point found.

                         Standard orientation:
 ---------------------------------------------------------------------
 Center     Atomic      Atomic             Coordinates (Angstroms)
 Number     Number       Type             X           Y           Z
 ---------------------------------------------------------------------
      1          6           0       -0.163102    0.818192    0.249969
      2          8           0       -0.198827    1.160731    1.361401
      3          6           0       -0.177619    1.395519   -1.113341
      4          1           0       -0.013863    0.631796   -1.868074
      5          1           0       -1.157878    1.867133   -1.254050
      6          1           0        0.614012    2.153193   -1.151933
      7         17           0       -1.621889   -1.062291   -0.059422
      8          6           0        1.893732   -0.390980   -0.009523
      9          7           0        2.914627   -0.973630   -0.052800
 ---------------------------------------------------------------------

 The electronic state is 1-A.
 Alpha  occ. eigenvalues -- -101.45698 -19.21255 -14.27801 -10.35342 -10.20827
 Alpha  occ. eigenvalues --  -10.14907  -9.37105  -7.13140  -7.12745  -7.12734
 Alpha  occ. eigenvalues --   -1.11911  -0.83511  -0.77118  -0.71063  -0.54796
 Alpha  occ. eigenvalues --   -0.47544  -0.47462  -0.46753  -0.39743  -0.39447
 Alpha  occ. eigenvalues --   -0.36278  -0.28334  -0.28234  -0.26194  -0.25325
 Alpha  occ. eigenvalues --   -0.24533  -0.24190
 Alpha virt. eigenvalues --   -0.04977  -0.00917   0.02827   0.04976   0.05429
 Alpha virt. eigenvalues --    0.05641   0.07626   0.08224   0.08926   0.09869
 Alpha virt. eigenvalues --    0.10249   0.10763   0.11100   0.12769   0.13506

 Mulliken charges:
               1
     1  C    0.295075
     2  O   -0.175117
     3  C   -0.568433
     4  H    0.293149
     5  H    0.276862
     6  H    0.277502
     7  Cl  -0.586475
     8  C   -0.156447
     9  N   -0.656118
 Sum of Mulliken charges =  -1.00000

 Dipole moment (field-independent basis, Debye):
    X=             -4.5871    Y=              8.1802    Z=             -2.5130  Tot=              9.7094
 Quadrupole moment (field-independent basis, Debye-Ang):
   XX=            -81.2839   YY=            -49.7562   ZZ=            -46.2040
   XY=              3.0982   XZ=              0.8280   YZ=             -4.3339

 Normal termination of Gaussian 16 at Wed Jan  8 01:18:08 2020.
