 Gaussian 16, Revision A.03,
 Gaussian 16:  AS64L-G16RevA.03 25-Dec-2016

 ----------------------------------------------------------------------
 #p opt=modredundant b3lyp/6-31+g(d) scrf=(smd, solvent=tetrahydrofuran
 )
 ----------------------------------------------------------------------

 -----
 title
 -----
 Symbolic Z-matrix:
 Charge = -1 Multiplicity = 1

 SCF Done:  E(RB3LYP) =  -706.316866765     A.U. after   17 cycles
 SCF Done:  E(RB3LYP) =  -706.358277355     A.U. after   14 cycles
 SCF Done:  E(RB3LYP) =  -706.375183729     A.U. after   13 cycles
 SCF Done:  E(RB3LYP) =  -706.385346908     A.U. after   12 cycles
 SCF Done:  E(RB3LYP) =  -706.388253604     A.U. after   11 cycles
 SCF Done:  E(RB3LYP) =  -706.388710271     A.U. after   11 cycles
 SCF Done:  E(RB3LYP) =  -706.389113129     A.U. after   11 cycles
 SCF Done:  E(RB3LYP) =  -706.389373712     A.U. after   11 cycles
 SCF Done:  E(RB3LYP) =  -706.389451191     A.U. after    9 cycles
 SCF Done:  E(RB3LYP) =  -706.389645721     A.U. after   10 cycles
 SCF Done:  E(RB3LYP) =  -706.389812763     A.U. after    9 cycles
 SCF Done:  E(RB3LYP) =  -706.389813184     A.U. after    8 cycles
 SCF Done:  E(RB3LYP) =  -706.389766424     A.U. after   10 cycles
 SCF Done:  E(RB3LYP) =  -706.389793098     A.U. after    9 cycles
 SCF Done:  E(RB3LYP) =  -706.389798195     A.U. after    8 cycles
 SCF Done:  E(RB3LYP) =  -706.389791050     A.U. after    9 cycles
 SCF Done:  E(RB3LYP) =  -706.389796860     A.U. after    8 cycles
 SCF Done:  E(RB3LYP) =  -706.389797590     A.U. after    8 cycles
 SCF Done:  E(RB3LYP) =  -706.389798140     A.U. after    8 cycles
 SCF Done:  E(RB3LYP) =  -706.389798193     A.U. after    8 cycles
 Optimization completed.
    -- Stationary point found.

                         Standard orientation:
 ---------------------------------------------------------------------
 Center     Atomic      Atomic             Coordinates (Angstroms)
 Number     Number       Type             X           Y           Z
 ---------------------------------------------------------------------
      1          6           0        0.216055    0.859925    0.174589
      2          8           0        0.139390    1.073813    1.285799
      3          6           0        0.113686    0.914045   -1.259549
      4          1           0        0.103624   -0.101774   -1.659634
      5          1           0       -0.823834    1.433823   -1.493154
      6          1           0        0.990732    1.459248   -1.628745
      7         17           0       -2.577283   -0.694902    0.033959
      8          6           0        2.552733   -0.486798    0.047033
      9          7           0        3.590476   -1.041642    0.020771
 ---------------------------------------------------------------------

 The electronic state is 1-A.
 Alpha  occ. eigenvalues -- -101.42020 -19.29719 -14.27815 -10.40736 -10.24560
 Alpha  occ. eigenvalues --  -10.14701  -9.33349  -7.09160  -7.09119  -7.09111
 Alpha  occ. eigenvalues --   -1.20292  -0.83464  -0.82301  -0.67241  -0.59688
 Alpha  occ. eigenvalues --   -0.52926  -0.52607  -0.52234  -0.44180  -0.43902
 Alpha  occ. eigenvalues --   -0.36810  -0.28290  -0.28272  -0.25762  -0.22071
 Alpha  occ. eigenvalues --   -0.21792  -0.21749
 Alpha virt. eigenvalues --   -0.07380  -0.06330   0.01751   0.04479   0.04548
 Alpha virt. eigenvalues --    0.04941   0.06854   0.07321   0.08397   0.09610
 Alpha virt. eigenvalues --    0.09926   0.10695   0.10879   0.12310   0.12973

 Mulliken charges:
               1
     1  C    0.812755
     2  O   -0.189172
     3  C   -0.732394
     4  H    0.354735
     5  H    0.322994
     6  H    0.324756
     7  Cl  -0.932853
     8  C   -0.313191
     9  N   -0.647630
 Sum of Mulliken charges =  -1.00000

 Dipole moment (field-independent basis, Debye):
    X=             -0.4897    Y=              9.6613    Z=             -3.5321  Tot=             10.2983
 Quadrupole moment (field-independent basis, Debye-Ang):
   XX=           -119.9735   YY=            -48.7643   ZZ=            -43.2101
   XY=              4.1848   XZ=             -0.2855   YZ=             -2.8556

 Normal termination of Gaussian 16 at Wed Jan  8 03:14:38 2020.
