 Gaussian 16, Revision A.03,
 Gaussian 16:  AS64L-G16RevA.03 25-Dec-2016

 ----------------------------------------------------------------------
 #p opt=modredundant b3lyp/6-31+g(d) scrf=(smd, solvent=tetrahydrofuran
 )
 ----------------------------------------------------------------------

 -----
 title
 -----
 Symbolic Z-matrix:
 Charge = -1 Multiplicity = 1

 SCF Done:  E(RB3LYP) =  -706.382347761     A.U. after   14 cycles
 SCF Done:  E(RB3LYP) =  -706.413291212     A.U. after   13 cycles
 SCF Done:  E(RB3LYP) =  -706.429240294     A.U. after   13 cycles
 SCF Done:  E(RB3LYP) =  -706.433277512     A.U. after   12 cycles
 SCF Done:  E(RB3LYP) =  -706.433681446     A.U. after   11 cycles
 SCF Done:  E(RB3LYP) =  -706.433734059     A.U. after   10 cycles
 SCF Done:  E(RB3LYP) =  -706.433769131     A.U. after   10 cycles
 SCF Done:  E(RB3LYP) =  -706.433758248     A.U. after   10 cycles
 SCF Done:  E(RB3LYP) =  -706.433754955     A.U. after   10 cycles
 SCF Done:  E(RB3LYP) =  -706.433769452     A.U. after   10 cycles
 SCF Done:  E(RB3LYP) =  -706.433751354     A.U. after   10 cycles
 SCF Done:  E(RB3LYP) =  -706.433749156     A.U. after    9 cycles
 SCF Done:  E(RB3LYP) =  -706.433769203     A.U. after   10 cycles
 SCF Done:  E(RB3LYP) =  -706.433749076     A.U. after   10 cycles
 SCF Done:  E(RB3LYP) =  -706.433769269     A.U. after   11 cycles
 SCF Done:  E(RB3LYP) =  -706.433748254     A.U. after   10 cycles
 Optimization completed.
    -- Stationary point found.

                         Standard orientation:
 ---------------------------------------------------------------------
 Center     Atomic      Atomic             Coordinates (Angstroms)
 Number     Number       Type             X           Y           Z
 ---------------------------------------------------------------------
      1          6           0        0.612438    0.761889    0.214908
      2          8           0        0.610473    1.165029    1.331291
      3          6           0        0.410119    1.446980   -1.089519
      4          1           0        0.009781    0.762363   -1.836221
      5          1           0       -0.255235    2.303455   -0.952550
      6          1           0        1.397899    1.800676   -1.420502
      7         17           0       -1.972923   -0.535947    0.011114
      8          6           0        1.342808   -0.862583   -0.045186
      9          7           0        1.901609   -1.879049   -0.158744
 ---------------------------------------------------------------------

 The electronic state is 1-A.
 Alpha  occ. eigenvalues -- -101.41655 -19.18059 -14.32904 -10.33688 -10.21929
 Alpha  occ. eigenvalues --  -10.19252  -9.33010  -7.08836  -7.08766  -7.08760
 Alpha  occ. eigenvalues --   -1.08560  -0.88922  -0.75766  -0.66994  -0.57421
 Alpha  occ. eigenvalues --   -0.49480  -0.45679  -0.45047  -0.40149  -0.37796
 Alpha  occ. eigenvalues --   -0.37133  -0.32924  -0.32801  -0.28784  -0.21586
 Alpha  occ. eigenvalues --   -0.21393  -0.21377
 Alpha virt. eigenvalues --   -0.03757   0.01652   0.02829   0.03741   0.05239
 Alpha virt. eigenvalues --    0.06566   0.06686   0.08082   0.09242   0.09641
 Alpha virt. eigenvalues --    0.10289   0.10533   0.10711   0.13046   0.13469

 Mulliken charges:
               1
     1  C    0.475142
     2  O   -0.302483
     3  C   -0.704221
     4  H    0.274071
     5  H    0.261494
     6  H    0.268196
     7  Cl  -0.882209
     8  C    0.190189
     9  N   -0.580179
 Sum of Mulliken charges =  -1.00000

 Dipole moment (field-independent basis, Debye):
    X=              5.6799    Y=              6.9522    Z=             -2.8242  Tot=              9.4112
 Quadrupole moment (field-independent basis, Debye-Ang):
   XX=            -70.5498   YY=            -54.6052   ZZ=            -47.5796
   XY=              3.4397   XZ=             -0.8775   YZ=             -5.0703

 Normal termination of Gaussian 16 at Wed Jan  8 02:16:29 2020.
