 Gaussian 16, Revision A.03,
 Gaussian 16:  AS64L-G16RevA.03 25-Dec-2016

 ----------------------------------------------------------------------
 #p opt=modredundant b3lyp/6-31+g(d) scrf=(smd, solvent=tetrahydrofuran
 )
 ----------------------------------------------------------------------

 -----
 title
 -----
 Symbolic Z-matrix:
 Charge = -1 Multiplicity = 1

 SCF Done:  E(RB3LYP) =  -706.362890198     A.U. after   14 cycles
 SCF Done:  E(RB3LYP) =  -706.386288993     A.U. after   12 cycles
 SCF Done:  E(RB3LYP) =  -706.390570761     A.U. after   12 cycles
 SCF Done:  E(RB3LYP) =  -706.390929791     A.U. after   12 cycles
 SCF Done:  E(RB3LYP) =  -706.390962298     A.U. after   11 cycles
 SCF Done:  E(RB3LYP) =  -706.390971774     A.U. after   10 cycles
 SCF Done:  E(RB3LYP) =  -706.390994364     A.U. after   11 cycles
 SCF Done:  E(RB3LYP) =  -706.391039263     A.U. after   11 cycles
 SCF Done:  E(RB3LYP) =  -706.389108445     A.U. after   14 cycles
 SCF Done:  E(RB3LYP) =  -706.391104764     A.U. after   11 cycles
 SCF Done:  E(RB3LYP) =  -706.391148827     A.U. after    9 cycles
 SCF Done:  E(RB3LYP) =  -706.391164729     A.U. after   11 cycles
 SCF Done:  E(RB3LYP) =  -706.391163789     A.U. after   11 cycles
 SCF Done:  E(RB3LYP) =  -706.391183152     A.U. after   11 cycles
 SCF Done:  E(RB3LYP) =  -706.391188795     A.U. after   10 cycles
 SCF Done:  E(RB3LYP) =  -706.391188280     A.U. after   10 cycles
 SCF Done:  E(RB3LYP) =  -706.391191156     A.U. after   11 cycles
 SCF Done:  E(RB3LYP) =  -706.391190639     A.U. after    9 cycles
 SCF Done:  E(RB3LYP) =  -706.391187788     A.U. after    9 cycles
 SCF Done:  E(RB3LYP) =  -706.391189404     A.U. after   10 cycles
 Optimization completed.
    -- Stationary point found.

                         Standard orientation:
 ---------------------------------------------------------------------
 Center     Atomic      Atomic             Coordinates (Angstroms)
 Number     Number       Type             X           Y           Z
 ---------------------------------------------------------------------
      1          6           0       -0.587301    0.377402    0.256438
      2          8           0       -0.421743    0.630946    1.438466
      3          6           0       -0.534547    1.456854   -0.808340
      4          1           0       -0.241787    1.065256   -1.783780
      5          1           0       -1.545224    1.884610   -0.889756
      6          1           0        0.156932    2.241399   -0.495656
      7         17           0       -1.216627   -1.019565   -0.204465
      8          6           0        1.880227   -0.244802   -0.276637
      9          7           0        3.019488   -0.348993    0.015515
 ---------------------------------------------------------------------

 The electronic state is 1-A.
 Alpha  occ. eigenvalues -- -101.54518 -19.13036 -14.25723 -10.30536 -10.17249
 Alpha  occ. eigenvalues --  -10.12030  -9.46558  -7.22850  -7.22037  -7.21897
 Alpha  occ. eigenvalues --   -1.04371  -0.88084  -0.81329  -0.71889  -0.54452
 Alpha  occ. eigenvalues --   -0.46116  -0.44856  -0.44015  -0.38351  -0.36668
 Alpha  occ. eigenvalues --   -0.34660  -0.30867  -0.30598  -0.26349  -0.26195
 Alpha  occ. eigenvalues --   -0.25565  -0.22718
 Alpha virt. eigenvalues --   -0.01093   0.02919   0.04837   0.05612   0.06037
 Alpha virt. eigenvalues --    0.06811   0.08468   0.09026   0.09325   0.09506
 Alpha virt. eigenvalues --    0.11156   0.11271   0.12114   0.13544   0.13701

 Mulliken charges:
               1
     1  C   -0.482424
     2  O   -0.327591
     3  C   -0.366647
     4  H    0.246060
     5  H    0.238459
     6  H    0.249310
     7  Cl   0.332904
     8  C   -0.235961
     9  N   -0.654110
 Sum of Mulliken charges =  -1.00000

 Dipole moment (field-independent basis, Debye):
    X=            -11.0000    Y=              1.9488    Z=             -2.6761  Tot=             11.4874
 Quadrupole moment (field-independent basis, Debye-Ang):
   XX=            -78.1713   YY=            -44.8285   ZZ=            -50.3814
   XY=              3.2732   XZ=              1.9063   YZ=             -2.7295

 Normal termination of Gaussian 16 at Tue Jan  7 23:23:23 2020.
