 Gaussian 16, Revision A.03,
 Gaussian 16:  AS64L-G16RevA.03 25-Dec-2016

 ----------------------------------------------------------------------
 #p opt=modredundant b3lyp/6-31+g(d) scrf=(smd, solvent=tetrahydrofuran
 )
 ----------------------------------------------------------------------

 -----
 title
 -----
 Symbolic Z-matrix:
 Charge = -1 Multiplicity = 1

 SCF Done:  E(RB3LYP) =  -706.358045215     A.U. after   14 cycles
 SCF Done:  E(RB3LYP) =  -706.391306784     A.U. after   12 cycles
 SCF Done:  E(RB3LYP) =  -706.399023692     A.U. after   12 cycles
 SCF Done:  E(RB3LYP) =  -706.401349580     A.U. after   11 cycles
 SCF Done:  E(RB3LYP) =  -706.401449448     A.U. after   11 cycles
 SCF Done:  E(RB3LYP) =  -706.401432122     A.U. after   11 cycles
 SCF Done:  E(RB3LYP) =  -706.401478854     A.U. after   10 cycles
 SCF Done:  E(RB3LYP) =  -706.401505803     A.U. after   10 cycles
 SCF Done:  E(RB3LYP) =  -706.401522968     A.U. after   10 cycles
 SCF Done:  E(RB3LYP) =  -706.401529493     A.U. after   10 cycles
 SCF Done:  E(RB3LYP) =  -706.401548393     A.U. after   10 cycles
 SCF Done:  E(RB3LYP) =  -706.401436033     A.U. after   12 cycles
 SCF Done:  E(RB3LYP) =  -706.401609531     A.U. after   10 cycles
 SCF Done:  E(RB3LYP) =  -706.401614312     A.U. after    9 cycles
 SCF Done:  E(RB3LYP) =  -706.401612170     A.U. after   10 cycles
 SCF Done:  E(RB3LYP) =  -706.401612747     A.U. after    9 cycles
 SCF Done:  E(RB3LYP) =  -706.401615106     A.U. after   10 cycles
 SCF Done:  E(RB3LYP) =  -706.401613404     A.U. after   10 cycles
 Optimization completed.
    -- Stationary point found.

                         Standard orientation:
 ---------------------------------------------------------------------
 Center     Atomic      Atomic             Coordinates (Angstroms)
 Number     Number       Type             X           Y           Z
 ---------------------------------------------------------------------
      1          6           0       -0.102569    0.865359    0.245164
      2          8           0       -0.155488    1.205002    1.352629
      3          6           0       -0.126855    1.386044   -1.136027
      4          1           0       -0.008518    0.585908   -1.860778
      5          1           0       -1.089557    1.892704   -1.274428
      6          1           0        0.696586    2.106095   -1.218923
      7         17           0       -1.687730   -1.045549   -0.047570
      8          6           0        1.905882   -0.426787    0.007501
      9          7           0        2.896865   -1.056871   -0.051149
 ---------------------------------------------------------------------

 The electronic state is 1-A.
 Alpha  occ. eigenvalues -- -101.44872 -19.22277 -14.28025 -10.35959 -10.21264
 Alpha  occ. eigenvalues --  -10.15221  -9.36256  -7.12248  -7.11922  -7.11913
 Alpha  occ. eigenvalues --   -1.12906  -0.83740  -0.77587  -0.70204  -0.55320
 Alpha  occ. eigenvalues --   -0.48180  -0.48066  -0.47223  -0.40272  -0.39945
 Alpha  occ. eigenvalues --   -0.36521  -0.28508  -0.28440  -0.26185  -0.24726
 Alpha  occ. eigenvalues --   -0.23897  -0.23751
 Alpha virt. eigenvalues --   -0.05441  -0.01460   0.02704   0.04943   0.05323
 Alpha virt. eigenvalues --    0.05568   0.07476   0.08104   0.08883   0.09880
 Alpha virt. eigenvalues --    0.10170   0.10704   0.11086   0.12724   0.13476

 Mulliken charges:
               1
     1  C    0.342011
     2  O   -0.164881
     3  C   -0.577779
     4  H    0.299502
     5  H    0.281355
     6  H    0.283321
     7  Cl  -0.655661
     8  C   -0.157602
     9  N   -0.650265
 Sum of Mulliken charges =  -1.00000

 Dipole moment (field-independent basis, Debye):
    X=             -3.6624    Y=              8.9058    Z=             -2.5750  Tot=              9.9678
 Quadrupole moment (field-independent basis, Debye-Ang):
   XX=            -82.2367   YY=            -50.2049   ZZ=            -45.8165
   XY=              3.1197   XZ=              0.6564   YZ=             -4.3811

 Normal termination of Gaussian 16 at Wed Jan  8 01:32:10 2020.
