 Gaussian 16, Revision A.03,
 Gaussian 16:  AS64L-G16RevA.03 25-Dec-2016

 ----------------------------------------------------------------------
 #p opt=modredundant b3lyp/6-31+g(d) scrf=(smd, solvent=tetrahydrofuran
 )
 ----------------------------------------------------------------------

 -----
 title
 -----
 Symbolic Z-matrix:
 Charge = -1 Multiplicity = 1

 SCF Done:  E(RB3LYP) =  -706.323675672     A.U. after   15 cycles
 SCF Done:  E(RB3LYP) =  -706.364161848     A.U. after   13 cycles
 SCF Done:  E(RB3LYP) =  -706.379432465     A.U. after   12 cycles
 SCF Done:  E(RB3LYP) =  -706.387529891     A.U. after   12 cycles
 SCF Done:  E(RB3LYP) =  -706.390125275     A.U. after   11 cycles
 SCF Done:  E(RB3LYP) =  -706.390374228     A.U. after   10 cycles
 SCF Done:  E(RB3LYP) =  -706.390508696     A.U. after   11 cycles
 SCF Done:  E(RB3LYP) =  -706.390622090     A.U. after   10 cycles
 SCF Done:  E(RB3LYP) =  -706.390809637     A.U. after   10 cycles
 SCF Done:  E(RB3LYP) =  -706.390858183     A.U. after   10 cycles
 SCF Done:  E(RB3LYP) =  -706.390883343     A.U. after   10 cycles
 SCF Done:  E(RB3LYP) =  -706.390892110     A.U. after    9 cycles
 SCF Done:  E(RB3LYP) =  -706.390896778     A.U. after    9 cycles
 SCF Done:  E(RB3LYP) =  -706.390900972     A.U. after   10 cycles
 SCF Done:  E(RB3LYP) =  -706.390900614     A.U. after   10 cycles
 SCF Done:  E(RB3LYP) =  -706.390901269     A.U. after    9 cycles
 SCF Done:  E(RB3LYP) =  -706.390901291     A.U. after    8 cycles
 SCF Done:  E(RB3LYP) =  -706.390901048     A.U. after    7 cycles
 Optimization completed.
    -- Stationary point found.

                         Standard orientation:
 ---------------------------------------------------------------------
 Center     Atomic      Atomic             Coordinates (Angstroms)
 Number     Number       Type             X           Y           Z
 ---------------------------------------------------------------------
      1          6           0        0.107815    0.902118    0.213024
      2          8           0        0.066312    1.101534    1.331083
      3          6           0        0.069308    1.082113   -1.218892
      4          1           0        0.077758    0.112904   -1.716831
      5          1           0       -0.853025    1.630034   -1.447773
      6          1           0        0.962246    1.660577   -1.488430
      7         17           0       -2.361219   -0.788529   -0.000475
      8          6           0        2.392977   -0.524302    0.030378
      9          7           0        3.428950   -1.081481   -0.019229
 ---------------------------------------------------------------------

 The electronic state is 1-A.
 Alpha  occ. eigenvalues -- -101.42590 -19.28881 -14.27589 -10.40184 -10.24187
 Alpha  occ. eigenvalues --  -10.14423  -9.33925  -7.09769  -7.09677  -7.09668
 Alpha  occ. eigenvalues --   -1.19457  -0.83232  -0.81711  -0.67830  -0.59140
 Alpha  occ. eigenvalues --   -0.52350  -0.52031  -0.51547  -0.43744  -0.43471
 Alpha  occ. eigenvalues --   -0.36596  -0.28079  -0.28061  -0.25478  -0.22682
 Alpha  occ. eigenvalues --   -0.22244  -0.22197
 Alpha virt. eigenvalues --   -0.07248  -0.05595   0.01885   0.04566   0.04709
 Alpha virt. eigenvalues --    0.05015   0.07080   0.07466   0.08499   0.09601
 Alpha virt. eigenvalues --    0.09889   0.10780   0.11039   0.12336   0.13132

 Mulliken charges:
               1
     1  C    0.708836
     2  O   -0.171120
     3  C   -0.698354
     4  H    0.349565
     5  H    0.318093
     6  H    0.319343
     7  Cl  -0.883005
     8  C   -0.291649
     9  N   -0.651709
 Sum of Mulliken charges =  -1.00000

 Dipole moment (field-independent basis, Debye):
    X=             -1.6781    Y=             10.4071    Z=             -3.0781  Tot=             10.9817
 Quadrupole moment (field-independent basis, Debye-Ang):
   XX=           -110.2425   YY=            -48.8207   ZZ=            -43.6228
   XY=              4.1210   XZ=             -0.0638   YZ=             -3.4248

 Normal termination of Gaussian 16 at Wed Jan  8 02:33:32 2020.
