 Gaussian 16, Revision A.03,
 Gaussian 16:  AS64L-G16RevA.03 25-Dec-2016

 ----------------------------------------------------------------------
 #p opt=modredundant b3lyp/6-31+g(d) scrf=(smd, solvent=tetrahydrofuran
 )
 ----------------------------------------------------------------------

 -----
 title
 -----
 Symbolic Z-matrix:
 Charge = -1 Multiplicity = 1

 SCF Done:  E(RB3LYP) =  -706.348357849     A.U. after   15 cycles
 SCF Done:  E(RB3LYP) =  -706.384002078     A.U. after   13 cycles
 SCF Done:  E(RB3LYP) =  -706.394323740     A.U. after   12 cycles
 SCF Done:  E(RB3LYP) =  -706.398428285     A.U. after   12 cycles
 SCF Done:  E(RB3LYP) =  -706.399004512     A.U. after   11 cycles
 SCF Done:  E(RB3LYP) =  -706.399055916     A.U. after   11 cycles
 SCF Done:  E(RB3LYP) =  -706.399082246     A.U. after   10 cycles
 SCF Done:  E(RB3LYP) =  -706.399094011     A.U. after   10 cycles
 SCF Done:  E(RB3LYP) =  -706.399099838     A.U. after    9 cycles
 SCF Done:  E(RB3LYP) =  -706.399100309     A.U. after    9 cycles
 SCF Done:  E(RB3LYP) =  -706.399100315     A.U. after    9 cycles
 Optimization completed.
    -- Stationary point found.

                         Standard orientation:
 ---------------------------------------------------------------------
 Center     Atomic      Atomic             Coordinates (Angstroms)
 Number     Number       Type             X           Y           Z
 ---------------------------------------------------------------------
      1          6           0        0.045196    0.909767    0.242994
      2          8           0       -0.016730    1.206597    1.355156
      3          6           0       -0.029523    1.359213   -1.152465
      4          1           0        0.006407    0.516140   -1.836517
      5          1           0       -0.967063    1.915613   -1.266513
      6          1           0        0.833655    2.018706   -1.311713
      7         17           0       -1.884659   -0.958414   -0.031886
      8          6           0        1.957746   -0.519011   -0.003471
      9          7           0        2.922789   -1.187144   -0.058114
 ---------------------------------------------------------------------

 The electronic state is 1-A.
 Alpha  occ. eigenvalues -- -101.43481 -19.24113 -14.28499 -10.37128 -10.22064
 Alpha  occ. eigenvalues --  -10.15822  -9.34838  -7.10750  -7.10549  -7.10542
 Alpha  occ. eigenvalues --   -1.14724  -0.84211  -0.78624  -0.68770  -0.56342
 Alpha  occ. eigenvalues --   -0.49380  -0.49213  -0.48279  -0.41249  -0.40927
 Alpha  occ. eigenvalues --   -0.37006  -0.28905  -0.28862  -0.26586  -0.23497
 Alpha  occ. eigenvalues --   -0.22844  -0.22831
 Alpha virt. eigenvalues --   -0.06052  -0.02591   0.02477   0.04838   0.05049
 Alpha virt. eigenvalues --    0.05452   0.07214   0.07816   0.08757   0.09887
 Alpha virt. eigenvalues --    0.10000   0.10564   0.11003   0.12626   0.13433

 Mulliken charges:
               1
     1  C    0.434676
     2  O   -0.153637
     3  C   -0.604820
     4  H    0.312321
     5  H    0.290398
     6  H    0.293398
     7  Cl  -0.772396
     8  C   -0.158108
     9  N   -0.641832
 Sum of Mulliken charges =  -1.00000

 Dipole moment (field-independent basis, Debye):
    X=             -1.7351    Y=              9.9576    Z=             -2.5893  Tot=             10.4340
 Quadrupole moment (field-independent basis, Debye-Ang):
   XX=            -86.3410   YY=            -50.3799   ZZ=            -45.2604
   XY=              3.3418   XZ=              0.4179   YZ=             -4.3254

 Normal termination of Gaussian 16 at Wed Jan  8 01:51:41 2020.
