 Gaussian 16, Revision A.03,
 Gaussian 16:  AS64L-G16RevA.03 25-Dec-2016

 ----------------------------------------------------------------------
 #p opt=modredundant b3lyp/6-31+g(d) scrf=(smd, solvent=tetrahydrofuran
 )
 ----------------------------------------------------------------------

 -----
 title
 -----
 Symbolic Z-matrix:
 Charge = -1 Multiplicity = 1

 SCF Done:  E(RB3LYP) =  -706.384109350     A.U. after   14 cycles
 SCF Done:  E(RB3LYP) =  -706.416695672     A.U. after   13 cycles
 SCF Done:  E(RB3LYP) =  -706.437927082     A.U. after   13 cycles
 SCF Done:  E(RB3LYP) =  -706.442409551     A.U. after   12 cycles
 SCF Done:  E(RB3LYP) =  -706.443028626     A.U. after   11 cycles
 SCF Done:  E(RB3LYP) =  -706.443259993     A.U. after   11 cycles
 SCF Done:  E(RB3LYP) =  -706.443295739     A.U. after   10 cycles
 SCF Done:  E(RB3LYP) =  -706.443305240     A.U. after    9 cycles
 SCF Done:  E(RB3LYP) =  -706.443312507     A.U. after    9 cycles
 SCF Done:  E(RB3LYP) =  -706.443322192     A.U. after    9 cycles
 SCF Done:  E(RB3LYP) =  -706.443329262     A.U. after    9 cycles
 SCF Done:  E(RB3LYP) =  -706.443331523     A.U. after    8 cycles
 SCF Done:  E(RB3LYP) =  -706.443331846     A.U. after    8 cycles
 SCF Done:  E(RB3LYP) =  -706.443330468     A.U. after   10 cycles
 SCF Done:  E(RB3LYP) =  -706.443328110     A.U. after    9 cycles
 SCF Done:  E(RB3LYP) =  -706.443326854     A.U. after    9 cycles
 Optimization completed.
    -- Stationary point found.

                         Standard orientation:
 ---------------------------------------------------------------------
 Center     Atomic      Atomic             Coordinates (Angstroms)
 Number     Number       Type             X           Y           Z
 ---------------------------------------------------------------------
      1          6           0       -0.850944   -0.664330    0.194922
      2          8           0       -0.926181   -1.070157    1.315617
      3          6           0       -0.615032   -1.391420   -1.081286
      4          1           0        0.024374   -0.804775   -1.743248
      5          1           0       -0.165071   -2.365457   -0.873678
      6          1           0       -1.590678   -1.531289   -1.569369
      7         17           0        2.189429    0.321591    0.039714
      8          6           0       -1.273336    0.962293   -0.061368
      9          7           0       -1.663370    2.050925   -0.189627
 ---------------------------------------------------------------------

 The electronic state is 1-A.
 Alpha  occ. eigenvalues -- -101.41224 -19.18118 -14.34155 -10.33575 -10.23185
 Alpha  occ. eigenvalues --  -10.19127  -9.32551  -7.08351  -7.08323  -7.08321
 Alpha  occ. eigenvalues --   -1.08411  -0.90176  -0.76005  -0.66432  -0.59774
 Alpha  occ. eigenvalues --   -0.49929  -0.45806  -0.45214  -0.40436  -0.37884
 Alpha  occ. eigenvalues --   -0.37716  -0.33909  -0.33801  -0.29038  -0.21105
 Alpha  occ. eigenvalues --   -0.21013  -0.21006
 Alpha virt. eigenvalues --   -0.05032   0.02032   0.02928   0.03261   0.05287
 Alpha virt. eigenvalues --    0.06519   0.06840   0.08411   0.09445   0.09708
 Alpha virt. eigenvalues --    0.10158   0.10546   0.10696   0.13101   0.13288

 Mulliken charges:
               1
     1  C    0.519183
     2  O   -0.332046
     3  C   -0.741089
     4  H    0.277718
     5  H    0.257893
     6  H    0.268641
     7  Cl  -0.937463
     8  C    0.242882
     9  N   -0.555720
 Sum of Mulliken charges =  -1.00000

 Dipole moment (field-independent basis, Debye):
    X=             -8.0218    Y=             -5.7612    Z=             -3.0270  Tot=             10.3297
 Quadrupole moment (field-independent basis, Debye-Ang):
   XX=            -72.7352   YY=            -54.9102   ZZ=            -47.6950
   XY=              3.5412   XZ=              1.5964   YZ=              4.9568

 Normal termination of Gaussian 16 at Wed Jan  8 02:55:42 2020.
