 Gaussian 16, Revision A.03,
 Gaussian 16:  AS64L-G16RevA.03 25-Dec-2016

 ----------------------------------------------------------------------
 #p opt=modredundant b3lyp/6-31+g(d) scrf=(smd, solvent=tetrahydrofuran
 )
 ----------------------------------------------------------------------

 -----
 title
 -----
 Symbolic Z-matrix:
 Charge = -1 Multiplicity = 1

 SCF Done:  E(RB3LYP) =  -706.387493009     A.U. after   14 cycles
 SCF Done:  E(RB3LYP) =  -706.393525828     A.U. after   12 cycles
 SCF Done:  E(RB3LYP) =  -706.393956437     A.U. after   11 cycles
 SCF Done:  E(RB3LYP) =  -706.394003278     A.U. after   10 cycles
 SCF Done:  E(RB3LYP) =  -706.394008603     A.U. after    9 cycles
 SCF Done:  E(RB3LYP) =  -706.394010731     A.U. after   10 cycles
 SCF Done:  E(RB3LYP) =  -706.394012318     A.U. after   10 cycles
 SCF Done:  E(RB3LYP) =  -706.394012664     A.U. after    8 cycles
 Optimization completed.
    -- Stationary point found.

                         Standard orientation:
 ---------------------------------------------------------------------
 Center     Atomic      Atomic             Coordinates (Angstroms)
 Number     Number       Type             X           Y           Z
 ---------------------------------------------------------------------
      1          6           0       -0.307611    0.394178    0.239143
      2          8           0       -0.350167    0.751312    1.426604
      3          6           0       -0.379839    1.441427   -0.875660
      4          1           0       -0.151608    1.022487   -1.859468
      5          1           0       -1.399255    1.852162   -0.887667
      6          1           0        0.321778    2.249371   -0.649094
      7         17           0       -1.179004   -1.005053   -0.176581
      8          6           0        1.555260   -0.239724   -0.118460
      9          7           0        2.695233   -0.517699   -0.069266
 ---------------------------------------------------------------------

 The electronic state is 1-A.
 Alpha  occ. eigenvalues -- -101.51378 -19.08795 -14.28407 -10.29499 -10.16310
 Alpha  occ. eigenvalues --  -10.15759  -9.43289  -7.19576  -7.18742  -7.18701
 Alpha  occ. eigenvalues --   -1.00070  -0.84368  -0.83134  -0.70465  -0.53022
 Alpha  occ. eigenvalues --   -0.45678  -0.43367  -0.40941  -0.36837  -0.36667
 Alpha  occ. eigenvalues --   -0.34116  -0.30042  -0.28749  -0.28699  -0.27273
 Alpha  occ. eigenvalues --   -0.23359  -0.22195
 Alpha virt. eigenvalues --    0.01211   0.03223   0.04988   0.05981   0.06316
 Alpha virt. eigenvalues --    0.07669   0.08026   0.08675   0.09512   0.09932
 Alpha virt. eigenvalues --    0.10348   0.10860   0.12500   0.13898   0.13970

 Mulliken charges:
               1
     1  C   -0.022372
     2  O   -0.443523
     3  C   -0.534686
     4  H    0.227415
     5  H    0.223563
     6  H    0.233539
     7  Cl   0.027846
     8  C   -0.022178
     9  N   -0.689605
 Sum of Mulliken charges =  -1.00000

 Dipole moment (field-independent basis, Debye):
    X=             -5.8909    Y=              1.7206    Z=             -3.3790  Tot=              7.0058
 Quadrupole moment (field-independent basis, Debye-Ang):
   XX=            -68.7454   YY=            -47.3668   ZZ=            -51.2570
   XY=              3.5518   XZ=              2.0677   YZ=             -3.7634

 Normal termination of Gaussian 16 at Tue Jan  7 23:25:02 2020.
