 Gaussian 16, Revision A.03,
 Gaussian 16:  AS64L-G16RevA.03 25-Dec-2016

 ----------------------------------------------------------------------
 #p opt=modredundant b3lyp/6-31+g(d) scrf=(smd, solvent=tetrahydrofuran
 )
 ----------------------------------------------------------------------

 -----
 title
 -----
 Symbolic Z-matrix:
 Charge = -1 Multiplicity = 1

 SCF Done:  E(RB3LYP) =  -706.383630132     A.U. after   14 cycles
 SCF Done:  E(RB3LYP) =  -706.409104790     A.U. after   12 cycles
 SCF Done:  E(RB3LYP) =  -706.414757939     A.U. after   12 cycles
 SCF Done:  E(RB3LYP) =  -706.415933252     A.U. after   12 cycles
 SCF Done:  E(RB3LYP) =  -706.416066887     A.U. after   11 cycles
 SCF Done:  E(RB3LYP) =  -706.416108530     A.U. after   11 cycles
 SCF Done:  E(RB3LYP) =  -706.416134032     A.U. after   10 cycles
 SCF Done:  E(RB3LYP) =  -706.416140008     A.U. after    9 cycles
 SCF Done:  E(RB3LYP) =  -706.416145719     A.U. after   10 cycles
 Optimization completed.
    -- Stationary point found.

                         Standard orientation:
 ---------------------------------------------------------------------
 Center     Atomic      Atomic             Coordinates (Angstroms)
 Number     Number       Type             X           Y           Z
 ---------------------------------------------------------------------
      1          6           0        0.040740    0.776831    0.241420
      2          8           0       -0.047631    1.179011    1.352142
      3          6           0       -0.147220    1.442578   -1.082956
      4          1           0       -0.088952    0.728944   -1.902193
      5          1           0       -1.118912    1.946842   -1.085138
      6          1           0        0.651813    2.189627   -1.182017
      7         17           0       -1.530745   -1.015110   -0.040326
      8          6           0        1.609538   -0.433397   -0.031014
      9          7           0        2.563059   -1.108100   -0.103849
 ---------------------------------------------------------------------

 The electronic state is 1-A.
 Alpha  occ. eigenvalues -- -101.44272 -19.16844 -14.30343 -10.33127 -10.19069
 Alpha  occ. eigenvalues --  -10.18603  -9.35719  -7.11696  -7.11381  -7.11375
 Alpha  occ. eigenvalues --   -1.07561  -0.86278  -0.75159  -0.69837  -0.54024
 Alpha  occ. eigenvalues --   -0.47458  -0.44767  -0.44504  -0.39062  -0.37306
 Alpha  occ. eigenvalues --   -0.35973  -0.30738  -0.30550  -0.27239  -0.24011
 Alpha  occ. eigenvalues --   -0.23412  -0.23362
 Alpha virt. eigenvalues --   -0.02496   0.01393   0.03013   0.05140   0.05228
 Alpha virt. eigenvalues --    0.06458   0.07039   0.07876   0.09106   0.10041
 Alpha virt. eigenvalues --    0.10276   0.10565   0.11059   0.12961   0.13681

 Mulliken charges:
               1
     1  C    0.328963
     2  O   -0.269268
     3  C   -0.608091
     4  H    0.266125
     5  H    0.259451
     6  H    0.258531
     7  Cl  -0.645418
     8  C    0.045061
     9  N   -0.635354
 Sum of Mulliken charges =  -1.00000

 Dipole moment (field-independent basis, Debye):
    X=             -0.9849    Y=              6.9579    Z=             -2.6431  Tot=              7.5079
 Quadrupole moment (field-independent basis, Debye-Ang):
   XX=            -71.2843   YY=            -51.9171   ZZ=            -47.6894
   XY=              2.1476   XZ=              0.9333   YZ=             -4.8128

 Normal termination of Gaussian 16 at Wed Jan  8 01:13:20 2020.
