 Gaussian 16, Revision A.03,
 Gaussian 16:  AS64L-G16RevA.03 25-Dec-2016

 ----------------------------------------------------------------------
 #p opt=modredundant b3lyp/6-31+g(d) scrf=(smd, solvent=tetrahydrofuran
 )
 ----------------------------------------------------------------------

 -----
 title
 -----
 Symbolic Z-matrix:
 Charge = -1 Multiplicity = 1

 SCF Done:  E(RB3LYP) =  -706.391215467     A.U. after   15 cycles
 SCF Done:  E(RB3LYP) =  -706.423216803     A.U. after   13 cycles
 SCF Done:  E(RB3LYP) =  -706.447588327     A.U. after   14 cycles
 SCF Done:  E(RB3LYP) =  -706.449877863     A.U. after   12 cycles
 SCF Done:  E(RB3LYP) =  -706.450133335     A.U. after   11 cycles
 SCF Done:  E(RB3LYP) =  -706.450210067     A.U. after   12 cycles
 SCF Done:  E(RB3LYP) =  -706.450277450     A.U. after   10 cycles
 SCF Done:  E(RB3LYP) =  -706.450311724     A.U. after   11 cycles
 SCF Done:  E(RB3LYP) =  -706.450346344     A.U. after   10 cycles
 SCF Done:  E(RB3LYP) =  -706.450363902     A.U. after   10 cycles
 SCF Done:  E(RB3LYP) =  -706.450361185     A.U. after   10 cycles
 SCF Done:  E(RB3LYP) =  -706.450360872     A.U. after    9 cycles
 SCF Done:  E(RB3LYP) =  -706.450362100     A.U. after   10 cycles
 SCF Done:  E(RB3LYP) =  -706.450362116     A.U. after    9 cycles
 SCF Done:  E(RB3LYP) =  -706.450362151     A.U. after    8 cycles
 Optimization completed.
    -- Stationary point found.

                         Standard orientation:
 ---------------------------------------------------------------------
 Center     Atomic      Atomic             Coordinates (Angstroms)
 Number     Number       Type             X           Y           Z
 ---------------------------------------------------------------------
      1          6           0       -0.934855   -0.411362    0.172858
      2          8           0       -1.156780   -0.803993    1.314035
      3          6           0       -0.829176   -1.325037   -1.020063
      4          1           0       -0.170143   -0.915161   -1.788240
      5          1           0       -0.472209   -2.305965   -0.697179
      6          1           0       -1.837143   -1.434968   -1.447740
      7         17           0        2.126731    0.060978    0.056300
      8          6           0       -0.970294    0.965456   -0.078369
      9          7           0       -1.144962    2.096723   -0.283254
 ---------------------------------------------------------------------

 The electronic state is 1-A.
 Alpha  occ. eigenvalues -- -101.41522 -19.15870 -14.35457 -10.30545 -10.23829
 Alpha  occ. eigenvalues --  -10.18014  -9.32857  -7.08677  -7.08617  -7.08615
 Alpha  occ. eigenvalues --   -1.05545  -0.91687  -0.76104  -0.66812  -0.66329
 Alpha  occ. eigenvalues --   -0.48746  -0.45023  -0.44696  -0.39762  -0.38221
 Alpha  occ. eigenvalues --   -0.37454  -0.34339  -0.33550  -0.27248  -0.21395
 Alpha  occ. eigenvalues --   -0.21246  -0.21235
 Alpha virt. eigenvalues --   -0.07167   0.01849   0.02447   0.04563   0.05793
 Alpha virt. eigenvalues --    0.06719   0.08305   0.08828   0.09379   0.10395
 Alpha virt. eigenvalues --    0.10637   0.10999   0.12704   0.13421   0.13803

 Mulliken charges:
               1
     1  C    0.342972
     2  O   -0.396994
     3  C   -0.669914
     4  H    0.257444
     5  H    0.253013
     6  H    0.257155
     7  Cl  -0.906417
     8  C    0.400341
     9  N   -0.537601
 Sum of Mulliken charges =  -1.00000

 Dipole moment (field-independent basis, Debye):
    X=             -8.1715    Y=             -3.4086    Z=             -3.0947  Tot=              9.3792
 Quadrupole moment (field-independent basis, Debye-Ang):
   XX=            -68.4146   YY=            -54.1773   ZZ=            -48.7120
   XY=              2.8657   XZ=              2.6610   YZ=              4.5983

 Normal termination of Gaussian 16 at Wed Jan  8 02:38:00 2020.
