 Gaussian 16, Revision A.03,
 Gaussian 16:  AS64L-G16RevA.03 25-Dec-2016

 ----------------------------------------------------------------------
 #p opt=modredundant b3lyp/6-31+g(d) scrf=(smd, solvent=tetrahydrofuran
 )
 ----------------------------------------------------------------------

 -----
 title
 -----
 Symbolic Z-matrix:
 Charge = -1 Multiplicity = 1

 SCF Done:  E(RB3LYP) =  -706.389933948     A.U. after   14 cycles
 SCF Done:  E(RB3LYP) =  -706.408506863     A.U. after   13 cycles
 SCF Done:  E(RB3LYP) =  -706.413359905     A.U. after   13 cycles
 SCF Done:  E(RB3LYP) =  -706.413826360     A.U. after   12 cycles
 SCF Done:  E(RB3LYP) =  -706.413878751     A.U. after   12 cycles
 SCF Done:  E(RB3LYP) =  -706.413899392     A.U. after   11 cycles
 SCF Done:  E(RB3LYP) =  -706.413911873     A.U. after   10 cycles
 SCF Done:  E(RB3LYP) =  -706.413912732     A.U. after    9 cycles
 Optimization completed.
    -- Stationary point found.

                         Standard orientation:
 ---------------------------------------------------------------------
 Center     Atomic      Atomic             Coordinates (Angstroms)
 Number     Number       Type             X           Y           Z
 ---------------------------------------------------------------------
      1          6           0        0.361506    0.451401    0.196241
      2          8           0        0.464164    0.923756    1.368769
      3          6           0        0.209113    1.444902   -0.970122
      4          1           0       -0.010223    0.958053   -1.924341
      5          1           0       -0.585615    2.154150   -0.725668
      6          1           0        1.157198    1.993497   -1.059498
      7         17           0       -1.571784   -0.576959   -0.015574
      8          6           0        1.064536   -0.610679   -0.064020
      9          7           0        1.804960   -1.485885   -0.278355
 ---------------------------------------------------------------------

 The electronic state is 1-A.
 Alpha  occ. eigenvalues -- -101.45283 -19.09591 -14.32962 -10.26801 -10.21537
 Alpha  occ. eigenvalues --  -10.16471  -9.36888  -7.12924  -7.12504  -7.12483
 Alpha  occ. eigenvalues --   -0.99628  -0.89624  -0.75972  -0.70525  -0.65925
 Alpha  occ. eigenvalues --   -0.45608  -0.43300  -0.41961  -0.37710  -0.36510
 Alpha  occ. eigenvalues --   -0.36261  -0.31798  -0.30803  -0.24730  -0.24438
 Alpha  occ. eigenvalues --   -0.22944  -0.22352
 Alpha virt. eigenvalues --   -0.03293   0.02637   0.03349   0.05014   0.05924
 Alpha virt. eigenvalues --    0.07204   0.08307   0.09199   0.09679   0.10391
 Alpha virt. eigenvalues --    0.10663   0.11907   0.13627   0.13884   0.14540

 Mulliken charges:
               1
     1  C   -0.090908
     2  O   -0.500846
     3  C   -0.572512
     4  H    0.226562
     5  H    0.240349
     6  H    0.226860
     7  Cl  -0.501347
     8  C    0.612324
     9  N   -0.640482
 Sum of Mulliken charges =  -1.00000

 Dipole moment (field-independent basis, Debye):
    X=              0.9919    Y=              3.3200    Z=             -3.2709  Tot=              4.7650
 Quadrupole moment (field-independent basis, Debye-Ang):
   XX=            -59.9232   YY=            -53.0518   ZZ=            -50.7259
   XY=              2.4375   XZ=             -0.7848   YZ=             -5.3306

 Normal termination of Gaussian 16 at Wed Jan  8 00:43:14 2020.
