 Gaussian 16, Revision A.03,
 Gaussian 16:  AS64L-G16RevA.03 25-Dec-2016

 ----------------------------------------------------------------------
 #p opt=modredundant b3lyp/6-31+g(d) scrf=(smd, solvent=tetrahydrofuran
 )
 ----------------------------------------------------------------------

 -----
 title
 -----
 Symbolic Z-matrix:
 Charge = -1 Multiplicity = 1

 SCF Done:  E(RB3LYP) =  -706.395594101     A.U. after   15 cycles
 SCF Done:  E(RB3LYP) =  -706.425823175     A.U. after   13 cycles
 SCF Done:  E(RB3LYP) =  -706.447510853     A.U. after   14 cycles
 SCF Done:  E(RB3LYP) =  -706.449304727     A.U. after   12 cycles
 SCF Done:  E(RB3LYP) =  -706.449519663     A.U. after   11 cycles
 SCF Done:  E(RB3LYP) =  -706.449594373     A.U. after   11 cycles
 SCF Done:  E(RB3LYP) =  -706.449659278     A.U. after   11 cycles
 SCF Done:  E(RB3LYP) =  -706.449675572     A.U. after   10 cycles
 SCF Done:  E(RB3LYP) =  -706.449678112     A.U. after   10 cycles
 SCF Done:  E(RB3LYP) =  -706.449678513     A.U. after    9 cycles
 SCF Done:  E(RB3LYP) =  -706.449678523     A.U. after    8 cycles
 Optimization completed.
    -- Stationary point found.

                         Standard orientation:
 ---------------------------------------------------------------------
 Center     Atomic      Atomic             Coordinates (Angstroms)
 Number     Number       Type             X           Y           Z
 ---------------------------------------------------------------------
      1          6           0       -0.836430   -0.427847    0.178805
      2          8           0       -1.042315   -0.829643    1.321746
      3          6           0       -0.754890   -1.344261   -1.017471
      4          1           0       -0.191368   -0.901449   -1.840610
      5          1           0       -0.304189   -2.293538   -0.718210
      6          1           0       -1.784097   -1.534101   -1.358075
      7         17           0        2.009870    0.111466    0.045712
      8          6           0       -0.940292    0.945053   -0.074880
      9          7           0       -1.194278    2.061948   -0.278985
 ---------------------------------------------------------------------

 The electronic state is 1-A.
 Alpha  occ. eigenvalues -- -101.41920 -19.15081 -14.34923 -10.30089 -10.23478
 Alpha  occ. eigenvalues --  -10.17751  -9.33281  -7.09124  -7.09025  -7.09023
 Alpha  occ. eigenvalues --   -1.04816  -0.91236  -0.75655  -0.67298  -0.65934
 Alpha  occ. eigenvalues --   -0.48267  -0.44511  -0.44262  -0.39435  -0.37861
 Alpha  occ. eigenvalues --   -0.37124  -0.33930  -0.33056  -0.26675  -0.21796
 Alpha  occ. eigenvalues --   -0.21596  -0.21578
 Alpha virt. eigenvalues --   -0.06483   0.02148   0.02574   0.04620   0.05828
 Alpha virt. eigenvalues --    0.06811   0.08247   0.08857   0.09453   0.10384
 Alpha virt. eigenvalues --    0.10653   0.11309   0.12804   0.13542   0.14036

 Mulliken charges:
               1
     1  C    0.276485
     2  O   -0.401168
     3  C   -0.653399
     4  H    0.251343
     5  H    0.253305
     6  H    0.252387
     7  Cl  -0.860004
     8  C    0.429751
     9  N   -0.548700
 Sum of Mulliken charges =  -1.00000

 Dipole moment (field-independent basis, Debye):
    X=             -6.9831    Y=             -3.5997    Z=             -3.0355  Tot=              8.4224
 Quadrupole moment (field-independent basis, Debye-Ang):
   XX=            -65.9804   YY=            -54.3518   ZZ=            -48.9229
   XY=              2.7947   XZ=              2.4350   YZ=              4.6881

 Normal termination of Gaussian 16 at Wed Jan  8 02:07:30 2020.
