 Gaussian 16, Revision A.03,
 Gaussian 16:  AS64L-G16RevA.03 25-Dec-2016

 ----------------------------------------------------------------------
 #p opt=modredundant b3lyp/6-31+g(d) scrf=(smd, solvent=tetrahydrofuran
 )
 ----------------------------------------------------------------------

 -----
 title
 -----
 Symbolic Z-matrix:
 Charge = -1 Multiplicity = 1

 SCF Done:  E(RB3LYP) =  -706.368430991     A.U. after   15 cycles
 SCF Done:  E(RB3LYP) =  -706.401798261     A.U. after   13 cycles
 SCF Done:  E(RB3LYP) =  -706.428273818     A.U. after   15 cycles
 SCF Done:  E(RB3LYP) =  -706.430525236     A.U. after   12 cycles
 SCF Done:  E(RB3LYP) =  -706.430782909     A.U. after   12 cycles
 SCF Done:  E(RB3LYP) =  -706.430785927     A.U. after   12 cycles
 SCF Done:  E(RB3LYP) =  -706.430895558     A.U. after   11 cycles
 SCF Done:  E(RB3LYP) =  -706.430943310     A.U. after   11 cycles
 SCF Done:  E(RB3LYP) =  -706.431004881     A.U. after   11 cycles
 SCF Done:  E(RB3LYP) =  -706.431011642     A.U. after   10 cycles
 SCF Done:  E(RB3LYP) =  -706.431006740     A.U. after   10 cycles
 SCF Done:  E(RB3LYP) =  -706.431005907     A.U. after    9 cycles
 SCF Done:  E(RB3LYP) =  -706.431011118     A.U. after   10 cycles
 SCF Done:  E(RB3LYP) =  -706.431005628     A.U. after   10 cycles
 SCF Done:  E(RB3LYP) =  -706.431011074     A.U. after   10 cycles
 SCF Done:  E(RB3LYP) =  -706.431011115     A.U. after    8 cycles
 Optimization completed.
    -- Stationary point found.

                         Standard orientation:
 ---------------------------------------------------------------------
 Center     Atomic      Atomic             Coordinates (Angstroms)
 Number     Number       Type             X           Y           Z
 ---------------------------------------------------------------------
      1          6           0       -0.986020   -0.350889    0.165202
      2          8           0       -1.219649   -0.746827    1.313871
      3          6           0       -0.878378   -1.302235   -1.006367
      4          1           0       -0.201833   -0.925854   -1.777048
      5          1           0       -0.540698   -2.277689   -0.648312
      6          1           0       -1.880757   -1.409466   -1.446891
      7         17           0        2.189398    0.030731    0.059906
      8          6           0       -0.983891    0.926439   -0.076520
      9          7           0       -1.107078    2.060758   -0.307287
 ---------------------------------------------------------------------

 The electronic state is 1-A.
 Alpha  occ. eigenvalues -- -101.41393 -19.15954 -14.36117 -10.29582 -10.23680
 Alpha  occ. eigenvalues --  -10.18007  -9.32720  -7.08534  -7.08485  -7.08484
 Alpha  occ. eigenvalues --   -1.05434  -0.92324  -0.77373  -0.68403  -0.66580
 Alpha  occ. eigenvalues --   -0.48698  -0.45613  -0.45309  -0.39808  -0.38598
 Alpha  occ. eigenvalues --   -0.37871  -0.34325  -0.33323  -0.27164  -0.21255
 Alpha  occ. eigenvalues --   -0.21132  -0.21118
 Alpha virt. eigenvalues --   -0.08549   0.01287   0.02381   0.04686   0.05825
 Alpha virt. eigenvalues --    0.06715   0.08778   0.08962   0.09328   0.10413
 Alpha virt. eigenvalues --    0.10642   0.11487   0.12786   0.13383   0.13801

 Mulliken charges:
               1
     1  C    0.334918
     2  O   -0.412400
     3  C   -0.654932
     4  H    0.256262
     5  H    0.253274
     6  H    0.256756
     7  Cl  -0.921373
     8  C    0.416650
     9  N   -0.529154
 Sum of Mulliken charges =  -1.00000

 Dipole moment (field-independent basis, Debye):
    X=             -8.7353    Y=             -2.9911    Z=             -3.1074  Tot=              9.7420
 Quadrupole moment (field-independent basis, Debye-Ang):
   XX=            -69.5470   YY=            -53.4353   ZZ=            -48.7731
   XY=              2.6301   XZ=              2.8498   YZ=              4.4353

 Normal termination of Gaussian 16 at Wed Jan  8 02:54:23 2020.
