 Gaussian 16, Revision A.03,
 Gaussian 16:  AS64L-G16RevA.03 25-Dec-2016

 ----------------------------------------------------------------------
 #p opt=modredundant b3lyp/6-31+g(d) scrf=(smd, solvent=tetrahydrofuran
 )
 ----------------------------------------------------------------------

 -----
 title
 -----
 Symbolic Z-matrix:
 Charge = -1 Multiplicity = 1

 SCF Done:  E(RB3LYP) =  -706.367369340     A.U. after   14 cycles
 SCF Done:  E(RB3LYP) =  -706.397736484     A.U. after   12 cycles
 SCF Done:  E(RB3LYP) =  -706.403530244     A.U. after   12 cycles
 SCF Done:  E(RB3LYP) =  -706.404905825     A.U. after   11 cycles
 SCF Done:  E(RB3LYP) =  -706.404969505     A.U. after   11 cycles
 SCF Done:  E(RB3LYP) =  -706.405063485     A.U. after   11 cycles
 SCF Done:  E(RB3LYP) =  -706.405093714     A.U. after   10 cycles
 SCF Done:  E(RB3LYP) =  -706.405113593     A.U. after   10 cycles
 SCF Done:  E(RB3LYP) =  -706.405127835     A.U. after   10 cycles
 SCF Done:  E(RB3LYP) =  -706.405128294     A.U. after   10 cycles
 SCF Done:  E(RB3LYP) =  -706.405129725     A.U. after    9 cycles
 SCF Done:  E(RB3LYP) =  -706.405130336     A.U. after    8 cycles
 SCF Done:  E(RB3LYP) =  -706.405130788     A.U. after    9 cycles
 SCF Done:  E(RB3LYP) =  -706.405130745     A.U. after    8 cycles
 Optimization completed.
    -- Stationary point found.

                         Standard orientation:
 ---------------------------------------------------------------------
 Center     Atomic      Atomic             Coordinates (Angstroms)
 Number     Number       Type             X           Y           Z
 ---------------------------------------------------------------------
      1          6           0       -0.121409    0.814336    0.249351
      2          8           0       -0.182660    1.171401    1.359359
      3          6           0       -0.180286    1.411758   -1.107784
      4          1           0       -0.027838    0.660792   -1.877808
      5          1           0       -1.165219    1.880097   -1.219698
      6          1           0        0.605053    2.175956   -1.157081
      7         17           0       -1.579387   -1.067288   -0.056897
      8          6           0        1.819466   -0.391171   -0.014760
      9          7           0        2.827462   -0.993384   -0.059124
 ---------------------------------------------------------------------

 The electronic state is 1-A.
 Alpha  occ. eigenvalues -- -101.45322 -19.20282 -14.28333 -10.34828 -10.20434
 Alpha  occ. eigenvalues --  -10.15681  -9.36738  -7.12760  -7.12382  -7.12374
 Alpha  occ. eigenvalues --   -1.10957  -0.84088  -0.76626  -0.70736  -0.54394
 Alpha  occ. eigenvalues --   -0.47319  -0.46894  -0.46226  -0.39328  -0.39028
 Alpha  occ. eigenvalues --   -0.36382  -0.28840  -0.28719  -0.26473  -0.25055
 Alpha  occ. eigenvalues --   -0.24240  -0.23994
 Alpha virt. eigenvalues --   -0.04489  -0.00316   0.02864   0.05030   0.05438
 Alpha virt. eigenvalues --    0.05764   0.07509   0.08153   0.08967   0.09934
 Alpha virt. eigenvalues --    0.10331   0.10622   0.11027   0.12815   0.13552

 Mulliken charges:
               1
     1  C    0.296181
     2  O   -0.191048
     3  C   -0.569839
     4  H    0.286623
     5  H    0.272239
     6  H    0.273299
     7  Cl  -0.598544
     8  C   -0.116026
     9  N   -0.652886
 Sum of Mulliken charges =  -1.00000

 Dipole moment (field-independent basis, Debye):
    X=             -3.7345    Y=              7.9604    Z=             -2.5256  Tot=              9.1484
 Quadrupole moment (field-independent basis, Debye-Ang):
   XX=            -78.4821   YY=            -50.2667   ZZ=            -46.5164
   XY=              2.8041   XZ=              0.8804   YZ=             -4.4365

 Normal termination of Gaussian 16 at Wed Jan  8 01:16:52 2020.
