 Gaussian 16, Revision A.03,
 Gaussian 16:  AS64L-G16RevA.03 25-Dec-2016

 ----------------------------------------------------------------------
 #p opt=modredundant b3lyp/6-31+g(d) scrf=(smd, solvent=tetrahydrofuran
 )
 ----------------------------------------------------------------------

 -----
 title
 -----
 Symbolic Z-matrix:
 Charge = -1 Multiplicity = 1

 SCF Done:  E(RB3LYP) =  -706.405929916     A.U. after   14 cycles
 SCF Done:  E(RB3LYP) =  -706.428582392     A.U. after   13 cycles
 SCF Done:  E(RB3LYP) =  -706.436160078     A.U. after   13 cycles
 SCF Done:  E(RB3LYP) =  -706.436803885     A.U. after   12 cycles
 SCF Done:  E(RB3LYP) =  -706.436890573     A.U. after   11 cycles
 SCF Done:  E(RB3LYP) =  -706.436904396     A.U. after   10 cycles
 SCF Done:  E(RB3LYP) =  -706.436906940     A.U. after    9 cycles
 Optimization completed.
    -- Stationary point found.

                         Standard orientation:
 ---------------------------------------------------------------------
 Center     Atomic      Atomic             Coordinates (Angstroms)
 Number     Number       Type             X           Y           Z
 ---------------------------------------------------------------------
      1          6           0        0.251742    0.697019    0.220718
      2          8           0        0.228972    1.136448    1.348991
      3          6           0       -0.007140    1.472860   -1.043311
      4          1           0       -0.095243    0.822913   -1.914242
      5          1           0       -0.917836    2.066267   -0.924218
      6          1           0        0.844315    2.154418   -1.185526
      7         17           0       -1.574027   -0.843047   -0.013300
      8          6           0        1.362610   -0.558527   -0.061373
      9          7           0        2.207454   -1.353071   -0.176862
 ---------------------------------------------------------------------

 The electronic state is 1-A.
 Alpha  occ. eigenvalues -- -101.43685 -19.13496 -14.32457 -10.31254 -10.21595
 Alpha  occ. eigenvalues --  -10.17711  -9.35165  -7.11110  -7.10844  -7.10830
 Alpha  occ. eigenvalues --   -1.03972  -0.88657  -0.74151  -0.69343  -0.57728
 Alpha  occ. eigenvalues --   -0.47264  -0.43209  -0.42762  -0.38939  -0.36231
 Alpha  occ. eigenvalues --   -0.35775  -0.32442  -0.32366  -0.26042  -0.23415
 Alpha  occ. eigenvalues --   -0.23017  -0.22822
 Alpha virt. eigenvalues --   -0.01784   0.02453   0.03821   0.04239   0.05542
 Alpha virt. eigenvalues --    0.06936   0.07003   0.08644   0.09755   0.10177
 Alpha virt. eigenvalues --    0.10555   0.10780   0.12114   0.13553   0.13944

 Mulliken charges:
               1
     1  C    0.262832
     2  O   -0.367706
     3  C   -0.624776
     4  H    0.246800
     5  H    0.251205
     6  H    0.244215
     7  Cl  -0.670411
     8  C    0.268936
     9  N   -0.611094
 Sum of Mulliken charges =  -1.00000

 Dipole moment (field-independent basis, Debye):
    X=              1.4089    Y=              5.5336    Z=             -2.9201  Tot=              6.4134
 Quadrupole moment (field-independent basis, Debye-Ang):
   XX=            -65.4477   YY=            -53.3386   ZZ=            -49.0319
   XY=              1.8362   XZ=              0.3201   YZ=             -5.2312

 Normal termination of Gaussian 16 at Wed Jan  8 01:40:03 2020.
