 Gaussian 16, Revision A.03,
 Gaussian 16:  AS64L-G16RevA.03 25-Dec-2016

 ----------------------------------------------------------------------
 #p opt=modredundant b3lyp/6-31+g(d) scrf=(smd, solvent=tetrahydrofuran
 )
 ----------------------------------------------------------------------

 -----
 title
 -----
 Symbolic Z-matrix:
 Charge = -1 Multiplicity = 1

 SCF Done:  E(RB3LYP) =  -706.412675605     A.U. after   14 cycles
 SCF Done:  E(RB3LYP) =  -706.427156596     A.U. after   13 cycles
 SCF Done:  E(RB3LYP) =  -706.429427334     A.U. after   13 cycles
 SCF Done:  E(RB3LYP) =  -706.429707966     A.U. after   12 cycles
 SCF Done:  E(RB3LYP) =  -706.429744152     A.U. after   11 cycles
 SCF Done:  E(RB3LYP) =  -706.429747040     A.U. after    9 cycles
 SCF Done:  E(RB3LYP) =  -706.429747431     A.U. after    8 cycles
 Optimization completed.
    -- Stationary point found.

                         Standard orientation:
 ---------------------------------------------------------------------
 Center     Atomic      Atomic             Coordinates (Angstroms)
 Number     Number       Type             X           Y           Z
 ---------------------------------------------------------------------
      1          6           0        0.218020    0.486553    0.205291
      2          8           0        0.257065    0.962040    1.379519
      3          6           0       -0.005747    1.457197   -0.967314
      4          1           0       -0.121745    0.949086   -1.929177
      5          1           0       -0.896245    2.056920   -0.759620
      6          1           0        0.864706    2.125412   -1.019340
      7         17           0       -1.454010   -0.760855   -0.036139
      8          6           0        1.180198   -0.493208   -0.067254
      9          7           0        2.065729   -1.228064   -0.248284
 ---------------------------------------------------------------------

 The electronic state is 1-A.
 Alpha  occ. eigenvalues -- -101.46081 -19.08453 -14.32716 -10.27526 -10.21708
 Alpha  occ. eigenvalues --  -10.16282  -9.37731  -7.13808  -7.13321  -7.13296
 Alpha  occ. eigenvalues --   -0.98596  -0.89296  -0.75869  -0.70513  -0.63634
 Alpha  occ. eigenvalues --   -0.45414  -0.42681  -0.40933  -0.37567  -0.36129
 Alpha  occ. eigenvalues --   -0.35853  -0.31985  -0.31396  -0.25362  -0.25031
 Alpha  occ. eigenvalues --   -0.22621  -0.21750
 Alpha virt. eigenvalues --   -0.01307   0.02669   0.03824   0.04918   0.05904
 Alpha virt. eigenvalues --    0.07216   0.07787   0.09094   0.09753   0.10299
 Alpha virt. eigenvalues --    0.10623   0.11613   0.13463   0.13908   0.14538

 Mulliken charges:
               1
     1  C   -0.025330
     2  O   -0.514569
     3  C   -0.585844
     4  H    0.224266
     5  H    0.236650
     6  H    0.224805
     7  Cl  -0.426936
     8  C    0.512957
     9  N   -0.645999
 Sum of Mulliken charges =  -1.00000

 Dipole moment (field-independent basis, Debye):
    X=             -0.1171    Y=              2.9926    Z=             -3.4435  Tot=              4.5637
 Quadrupole moment (field-independent basis, Debye-Ang):
   XX=            -60.4446   YY=            -52.4367   ZZ=            -51.1816
   XY=              2.3204   XZ=              0.0447   YZ=             -5.4597

 Normal termination of Gaussian 16 at Wed Jan  8 00:31:28 2020.
