 Gaussian 16, Revision A.03,
 Gaussian 16:  AS64L-G16RevA.03 25-Dec-2016

 ----------------------------------------------------------------------
 #p opt=modredundant b3lyp/6-31+g(d) scrf=(smd, solvent=tetrahydrofuran
 )
 ----------------------------------------------------------------------

 -----
 title
 -----
 Symbolic Z-matrix:
 Charge = -1 Multiplicity = 1

 SCF Done:  E(RB3LYP) =  -706.409750587     A.U. after   14 cycles
 SCF Done:  E(RB3LYP) =  -706.413137145     A.U. after   12 cycles
 SCF Done:  E(RB3LYP) =  -706.413511743     A.U. after   12 cycles
 SCF Done:  E(RB3LYP) =  -706.413527418     A.U. after   10 cycles
 SCF Done:  E(RB3LYP) =  -706.413529082     A.U. after    9 cycles
 SCF Done:  E(RB3LYP) =  -706.413529282     A.U. after    8 cycles
 Optimization completed.
    -- Stationary point found.

                         Standard orientation:
 ---------------------------------------------------------------------
 Center     Atomic      Atomic             Coordinates (Angstroms)
 Number     Number       Type             X           Y           Z
 ---------------------------------------------------------------------
      1          6           0       -0.019156    0.375062    0.209912
      2          8           0       -0.044574    0.821048    1.428939
      3          6           0       -0.227652    1.448751   -0.896076
      4          1           0       -0.192450    1.036196   -1.911507
      5          1           0       -1.202950    1.918797   -0.729236
      6          1           0        0.552796    2.211200   -0.789965
      7         17           0       -1.254465   -0.892927   -0.115996
      8          6           0        1.275509   -0.325773   -0.077619
      9          7           0        2.336129   -0.791864   -0.206594
 ---------------------------------------------------------------------

 The electronic state is 1-A.
 Alpha  occ. eigenvalues -- -101.49338 -19.04804 -14.31848 -10.27405 -10.20935
 Alpha  occ. eigenvalues --  -10.15684  -9.41186  -7.17420  -7.16668  -7.16640
 Alpha  occ. eigenvalues --   -0.95501  -0.88252  -0.80075  -0.69933  -0.60529
 Alpha  occ. eigenvalues --   -0.46123  -0.42061  -0.39560  -0.37129  -0.35767
 Alpha  occ. eigenvalues --   -0.34960  -0.32055  -0.31388  -0.27519  -0.26914
 Alpha  occ. eigenvalues --   -0.20419  -0.19267
 Alpha virt. eigenvalues --    0.02668   0.02833   0.04537   0.04967   0.06098
 Alpha virt. eigenvalues --    0.07077   0.07469   0.09261   0.09837   0.10144
 Alpha virt. eigenvalues --    0.10396   0.11345   0.14004   0.14116   0.14610

 Mulliken charges:
               1
     1  C    0.005735
     2  O   -0.612334
     3  C   -0.613850
     4  H    0.214315
     5  H    0.225426
     6  H    0.220304
     7  Cl  -0.139797
     8  C    0.373398
     9  N   -0.673198
 Sum of Mulliken charges =  -1.00000

 Dipole moment (field-independent basis, Debye):
    X=             -2.3691    Y=              1.2110    Z=             -4.1785  Tot=              4.9537
 Quadrupole moment (field-independent basis, Debye-Ang):
   XX=            -60.6594   YY=            -49.9884   ZZ=            -53.1824
   XY=              3.0408   XZ=              1.3222   YZ=             -5.1849

 Normal termination of Gaussian 16 at Tue Jan  7 23:37:34 2020.
