 Gaussian 16, Revision A.03,
 Gaussian 16:  AS64L-G16RevA.03 25-Dec-2016

 ----------------------------------------------------------------------
 #p opt=modredundant b3lyp/6-31+g(d) scrf=(smd, solvent=tetrahydrofuran
 )
 ----------------------------------------------------------------------

 -----
 title
 -----
 Symbolic Z-matrix:
 Charge = -1 Multiplicity = 1

 SCF Done:  E(RB3LYP) =  -706.331657244     A.U. after   14 cycles
 SCF Done:  E(RB3LYP) =  -706.370623961     A.U. after   13 cycles
 SCF Done:  E(RB3LYP) =  -706.384809802     A.U. after   13 cycles
 SCF Done:  E(RB3LYP) =  -706.391948983     A.U. after   12 cycles
 SCF Done:  E(RB3LYP) =  -706.393832507     A.U. after   11 cycles
 SCF Done:  E(RB3LYP) =  -706.394144788     A.U. after   11 cycles
 SCF Done:  E(RB3LYP) =  -706.394197684     A.U. after   11 cycles
 SCF Done:  E(RB3LYP) =  -706.394229243     A.U. after   10 cycles
 SCF Done:  E(RB3LYP) =  -706.394261229     A.U. after   10 cycles
 SCF Done:  E(RB3LYP) =  -706.394299347     A.U. after   10 cycles
 SCF Done:  E(RB3LYP) =  -706.394345629     A.U. after   10 cycles
 SCF Done:  E(RB3LYP) =  -706.394341419     A.U. after   10 cycles
 SCF Done:  E(RB3LYP) =  -706.394354044     A.U. after   10 cycles
 SCF Done:  E(RB3LYP) =  -706.394341812     A.U. after   10 cycles
 SCF Done:  E(RB3LYP) =  -706.394355425     A.U. after   10 cycles
 SCF Done:  E(RB3LYP) =  -706.394353676     A.U. after   10 cycles
 SCF Done:  E(RB3LYP) =  -706.394356920     A.U. after   10 cycles
 SCF Done:  E(RB3LYP) =  -706.394357200     A.U. after   10 cycles
 SCF Done:  E(RB3LYP) =  -706.394357462     A.U. after    9 cycles
 SCF Done:  E(RB3LYP) =  -706.394357909     A.U. after    9 cycles
 Optimization completed.
    -- Stationary point found.

                         Standard orientation:
 ---------------------------------------------------------------------
 Center     Atomic      Atomic             Coordinates (Angstroms)
 Number     Number       Type             X           Y           Z
 ---------------------------------------------------------------------
      1          6           0        0.190056    0.937681    0.229100
      2          8           0        0.098544    1.168338    1.344321
      3          6           0        0.079791    1.226978   -1.190705
      4          1           0        0.038522    0.302130   -1.762813
      5          1           0       -0.832387    1.819078   -1.331065
      6          1           0        0.975017    1.801276   -1.462572
      7         17           0       -2.215189   -0.839076   -0.011591
      8          6           0        2.176237   -0.565067    0.012691
      9          7           0        3.144600   -1.228921   -0.043941
 ---------------------------------------------------------------------

 The electronic state is 1-A.
 Alpha  occ. eigenvalues -- -101.42256 -19.27112 -14.28462 -10.39041 -10.23370
 Alpha  occ. eigenvalues --  -10.15680  -9.33593  -7.09429  -7.09348  -7.09340
 Alpha  occ. eigenvalues --   -1.17695  -0.84146  -0.80513  -0.67506  -0.58078
 Alpha  occ. eigenvalues --   -0.51286  -0.50952  -0.50332  -0.42802  -0.42527
 Alpha  occ. eigenvalues --   -0.37203  -0.28858  -0.28835  -0.26557  -0.22314
 Alpha  occ. eigenvalues --   -0.21946  -0.21905
 Alpha virt. eigenvalues --   -0.06746  -0.04660   0.02115   0.04646   0.04739
 Alpha virt. eigenvalues --    0.05212   0.07029   0.07466   0.08568   0.09682
 Alpha virt. eigenvalues --    0.09907   0.10533   0.10903   0.12469   0.13294

 Mulliken charges:
               1
     1  C    0.607163
     2  O   -0.156060
     3  C   -0.670634
     4  H    0.336356
     5  H    0.305548
     6  H    0.310231
     7  Cl  -0.885093
     8  C   -0.206097
     9  N   -0.641414
 Sum of Mulliken charges =  -1.00000

 Dipole moment (field-independent basis, Debye):
    X=             -0.0947    Y=             10.7073    Z=             -2.8248  Tot=             11.0741
 Quadrupole moment (field-independent basis, Debye-Ang):
   XX=            -98.9166   YY=            -49.8728   ZZ=            -44.2782
   XY=              3.9713   XZ=              0.0714   YZ=             -3.9181

 Normal termination of Gaussian 16 at Wed Jan  8 02:36:43 2020.
