 Gaussian 16, Revision A.03,
 Gaussian 16:  AS64L-G16RevA.03 25-Dec-2016

 ----------------------------------------------------------------------
 #p opt=modredundant b3lyp/6-31+g(d) scrf=(smd, solvent=tetrahydrofuran
 )
 ----------------------------------------------------------------------

 -----
 title
 -----
 Symbolic Z-matrix:
 Charge = -1 Multiplicity = 1

 SCF Done:  E(RB3LYP) =  -706.332599302     A.U. after   15 cycles
 SCF Done:  E(RB3LYP) =  -706.344646019     A.U. after   13 cycles
 SCF Done:  E(RB3LYP) =  -706.345102012     A.U. after   13 cycles
 SCF Done:  E(RB3LYP) =  -706.345451994     A.U. after   12 cycles
 SCF Done:  E(RB3LYP) =  -706.345457584     A.U. after   11 cycles
 SCF Done:  E(RB3LYP) =  -706.345470547     A.U. after   11 cycles
 SCF Done:  E(RB3LYP) =  -706.345471752     A.U. after    9 cycles
 SCF Done:  E(RB3LYP) =  -706.345472011     A.U. after    8 cycles
 Optimization completed.
    -- Stationary point found.

                         Standard orientation:
 ---------------------------------------------------------------------
 Center     Atomic      Atomic             Coordinates (Angstroms)
 Number     Number       Type             X           Y           Z
 ---------------------------------------------------------------------
      1          6           0        0.189661    0.324018    0.191016
      2          8           0        0.273619    0.792750    1.424001
      3          6           0        0.063136    1.454435   -0.894860
      4          1           0       -0.067473    1.065161   -1.910665
      5          1           0       -0.792659    2.078279   -0.622651
      6          1           0        0.976396    2.059615   -0.853786
      7         17           0       -1.409728   -0.666525   -0.075031
      8          6           0        1.063573   -0.457897   -0.063711
      9          7           0        1.965993   -1.162495   -0.303435
 ---------------------------------------------------------------------

 The electronic state is 1-A.
 Alpha  occ. eigenvalues -- -101.48516 -19.06061 -14.31634 -10.24777 -10.20011
 Alpha  occ. eigenvalues --  -10.16181  -9.40289  -7.16495  -7.15795  -7.15767
 Alpha  occ. eigenvalues --   -0.96994  -0.88149  -0.79279  -0.71985  -0.66464
 Alpha  occ. eigenvalues --   -0.45857  -0.43801  -0.41251  -0.36940  -0.36709
 Alpha  occ. eigenvalues --   -0.35403  -0.30666  -0.30068  -0.26898  -0.26464
 Alpha  occ. eigenvalues --   -0.20930  -0.19724
 Alpha virt. eigenvalues --   -0.01126   0.02714   0.03677   0.05239   0.06031
 Alpha virt. eigenvalues --    0.07333   0.08382   0.09635   0.09835   0.10249
 Alpha virt. eigenvalues --    0.10649   0.11686   0.13987   0.14199   0.14714

 Mulliken charges:
               1
     1  C   -0.237503
     2  O   -0.610697
     3  C   -0.581265
     4  H    0.218752
     5  H    0.232064
     6  H    0.220065
     7  Cl  -0.208412
     8  C    0.669865
     9  N   -0.702868
 Sum of Mulliken charges =  -1.00000

 Dipole moment (field-independent basis, Debye):
    X=             -1.7619    Y=              2.0991    Z=             -3.8826  Tot=              4.7524
 Quadrupole moment (field-independent basis, Debye-Ang):
   XX=            -58.2287   YY=            -51.0375   ZZ=            -52.6209
   XY=              3.4983   XZ=             -0.0515   YZ=             -5.4047

 Normal termination of Gaussian 16 at Tue Jan  7 23:56:13 2020.
