 Gaussian 16, Revision A.03,
 Gaussian 16:  AS64L-G16RevA.03 25-Dec-2016

 ----------------------------------------------------------------------
 #p opt=modredundant b3lyp/6-31+g(d) scrf=(smd, solvent=tetrahydrofuran
 )
 ----------------------------------------------------------------------

 -----
 title
 -----
 Symbolic Z-matrix:
 Charge = -1 Multiplicity = 1

 SCF Done:  E(RB3LYP) =  -706.336140516     A.U. after   14 cycles
 SCF Done:  E(RB3LYP) =  -706.337097395     A.U. after   12 cycles
 SCF Done:  E(RB3LYP) =  -706.337335135     A.U. after   11 cycles
 SCF Done:  E(RB3LYP) =  -706.337342380     A.U. after   10 cycles
 SCF Done:  E(RB3LYP) =  -706.337341591     A.U. after   10 cycles
 Optimization completed.
    -- Stationary point found.

                         Standard orientation:
 ---------------------------------------------------------------------
 Center     Atomic      Atomic             Coordinates (Angstroms)
 Number     Number       Type             X           Y           Z
 ---------------------------------------------------------------------
      1          6           0       -0.272440    0.244938    0.209955
      2          8           0       -0.315253    0.569182    1.463430
      3          6           0       -0.362488    1.466217   -0.758765
      4          1           0       -0.178696    1.194911   -1.805982
      5          1           0       -1.375878    1.882818   -0.672324
      6          1           0        0.357490    2.227527   -0.446532
      7         17           0       -1.122079   -0.909819   -0.231235
      8          6           0        1.425974   -0.244294   -0.130694
      9          7           0        2.578310   -0.456137   -0.110653
 ---------------------------------------------------------------------

 The electronic state is 1-A.
 Alpha  occ. eigenvalues -- -101.52139 -19.04726 -14.29482 -10.27671 -10.17473
 Alpha  occ. eigenvalues --  -10.15366  -9.44589  -7.20881  -7.19971  -7.19917
 Alpha  occ. eigenvalues --   -0.98248  -0.86343  -0.85545  -0.69281  -0.55013
 Alpha  occ. eigenvalues --   -0.48336  -0.43086  -0.40601  -0.36830  -0.35665
 Alpha  occ. eigenvalues --   -0.34876  -0.30720  -0.29690  -0.28040  -0.27116
 Alpha  occ. eigenvalues --   -0.20533  -0.19151
 Alpha virt. eigenvalues --    0.01913   0.03741   0.05112   0.06102   0.06862
 Alpha virt. eigenvalues --    0.07485   0.07890   0.09100   0.09649   0.09981
 Alpha virt. eigenvalues --    0.10223   0.11306   0.13146   0.14083   0.14535

 Mulliken charges:
               1
     1  C    0.047578
     2  O   -0.597134
     3  C   -0.595199
     4  H    0.210568
     5  H    0.212301
     6  H    0.224455
     7  Cl   0.134356
     8  C    0.053762
     9  N   -0.690689
 Sum of Mulliken charges =  -1.00000

 Dipole moment (field-independent basis, Debye):
    X=             -4.9913    Y=              0.4435    Z=             -4.2747  Tot=              6.5865
 Quadrupole moment (field-independent basis, Debye-Ang):
   XX=            -64.6586   YY=            -46.7416   ZZ=            -53.5002
   XY=              3.4725   XZ=              2.5538   YZ=             -3.2807

 Normal termination of Gaussian 16 at Tue Jan  7 22:48:30 2020.
