 Gaussian 16, Revision A.03,
 Gaussian 16:  AS64L-G16RevA.03 25-Dec-2016

 ----------------------------------------------------------------------
 #p opt=modredundant b3lyp/6-31+g(d) scrf=(smd, solvent=tetrahydrofuran
 )
 ----------------------------------------------------------------------

 -----
 title
 -----
 Symbolic Z-matrix:
 Charge = -1 Multiplicity = 1

 SCF Done:  E(RB3LYP) =  -706.410630166     A.U. after   14 cycles
 SCF Done:  E(RB3LYP) =  -706.413249778     A.U. after   12 cycles
 SCF Done:  E(RB3LYP) =  -706.413527384     A.U. after   11 cycles
 SCF Done:  E(RB3LYP) =  -706.413536118     A.U. after   10 cycles
 SCF Done:  E(RB3LYP) =  -706.413538769     A.U. after    9 cycles
 Optimization completed.
    -- Stationary point found.

                         Standard orientation:
 ---------------------------------------------------------------------
 Center     Atomic      Atomic             Coordinates (Angstroms)
 Number     Number       Type             X           Y           Z
 ---------------------------------------------------------------------
      1          6           0       -0.070570    0.396106    0.218881
      2          8           0       -0.121107    0.831949    1.423651
      3          6           0       -0.275495    1.441522   -0.904697
      4          1           0       -0.194699    1.012423   -1.910033
      5          1           0       -1.269829    1.885118   -0.779709
      6          1           0        0.477132    2.229895   -0.787916
      7         17           0       -1.231448   -0.936298   -0.123261
      8          6           0        1.337416   -0.302121   -0.081210
      9          7           0        2.420392   -0.725572   -0.173422
 ---------------------------------------------------------------------

 The electronic state is 1-A.
 Alpha  occ. eigenvalues -- -101.49353 -19.05323 -14.31530 -10.28140 -10.20452
 Alpha  occ. eigenvalues --  -10.15736  -9.41194  -7.17429  -7.16675  -7.16651
 Alpha  occ. eigenvalues --   -0.96086  -0.87863  -0.80044  -0.69870  -0.58225
 Alpha  occ. eigenvalues --   -0.46078  -0.41984  -0.39395  -0.37214  -0.35523
 Alpha  occ. eigenvalues --   -0.34860  -0.32113  -0.31296  -0.27518  -0.26945
 Alpha  occ. eigenvalues --   -0.20974  -0.19787
 Alpha virt. eigenvalues --    0.02602   0.03398   0.04458   0.05112   0.06116
 Alpha virt. eigenvalues --    0.06885   0.07450   0.09133   0.09823   0.10177
 Alpha virt. eigenvalues --    0.10353   0.11203   0.13997   0.14059   0.14528

 Mulliken charges:
               1
     1  C    0.061150
     2  O   -0.582869
     3  C   -0.612847
     4  H    0.215833
     5  H    0.224862
     6  H    0.222117
     7  Cl  -0.142886
     8  C    0.281970
     9  N   -0.667331
 Sum of Mulliken charges =  -1.00000

 Dipole moment (field-independent basis, Debye):
    X=             -2.6120    Y=              1.3180    Z=             -4.0342  Tot=              4.9834
 Quadrupole moment (field-independent basis, Debye-Ang):
   XX=            -61.9097   YY=            -49.7532   ZZ=            -52.8064
   XY=              3.0040   XZ=              1.5921   YZ=             -5.0214

 Normal termination of Gaussian 16 at Tue Jan  7 23:39:16 2020.
