 Gaussian 16, Revision A.03,
 Gaussian 16:  AS64L-G16RevA.03 25-Dec-2016

 ----------------------------------------------------------------------
 #p opt=modredundant b3lyp/6-31+g(d) scrf=(smd, solvent=tetrahydrofuran
 )
 ----------------------------------------------------------------------

 -----
 title
 -----
 Symbolic Z-matrix:
 Charge = -1 Multiplicity = 1

 SCF Done:  E(RB3LYP) =  -706.366423652     A.U. after   14 cycles
 SCF Done:  E(RB3LYP) =  -706.378324844     A.U. after   12 cycles
 SCF Done:  E(RB3LYP) =  -706.379265035     A.U. after   12 cycles
 SCF Done:  E(RB3LYP) =  -706.379364807     A.U. after   11 cycles
 SCF Done:  E(RB3LYP) =  -706.379386060     A.U. after   10 cycles
 SCF Done:  E(RB3LYP) =  -706.379426819     A.U. after   11 cycles
 SCF Done:  E(RB3LYP) =  -706.379436840     A.U. after   10 cycles
 SCF Done:  E(RB3LYP) =  -706.379440736     A.U. after   10 cycles
 SCF Done:  E(RB3LYP) =  -706.379441491     A.U. after    9 cycles
 Optimization completed.
    -- Stationary point found.

                         Standard orientation:
 ---------------------------------------------------------------------
 Center     Atomic      Atomic             Coordinates (Angstroms)
 Number     Number       Type             X           Y           Z
 ---------------------------------------------------------------------
      1          6           0       -0.431200    0.353120    0.240471
      2          8           0       -0.395247    0.655244    1.438022
      3          6           0       -0.442478    1.453681   -0.820077
      4          1           0       -0.189846    1.081262   -1.815473
      5          1           0       -1.458560    1.875956   -0.845047
      6          1           0        0.257423    2.240509   -0.530208
      7         17           0       -1.160277   -0.999429   -0.205688
      8          6           0        1.650797   -0.219707   -0.180433
      9          7           0        2.802136   -0.424564   -0.036644
 ---------------------------------------------------------------------

 The electronic state is 1-A.
 Alpha  occ. eigenvalues -- -101.53131 -19.10213 -14.26868 -10.29588 -10.16487
 Alpha  occ. eigenvalues --  -10.13523  -9.45209  -7.21505  -7.20657  -7.20567
 Alpha  occ. eigenvalues --   -1.01814  -0.86657  -0.82599  -0.70787  -0.53583
 Alpha  occ. eigenvalues --   -0.45386  -0.44477  -0.42351  -0.37349  -0.36442
 Alpha  occ. eigenvalues --   -0.34450  -0.29727  -0.29609  -0.27350  -0.26787
 Alpha  occ. eigenvalues --   -0.23795  -0.22634
 Alpha virt. eigenvalues --    0.00135   0.03134   0.05022   0.05976   0.06369
 Alpha virt. eigenvalues --    0.07440   0.08546   0.09063   0.09491   0.09709
 Alpha virt. eigenvalues --    0.10593   0.11088   0.12400   0.13803   0.13912

 Mulliken charges:
               1
     1  C   -0.270909
     2  O   -0.395630
     3  C   -0.432800
     4  H    0.232173
     5  H    0.224122
     6  H    0.239116
     7  Cl   0.217867
     8  C   -0.123851
     9  N   -0.690088
 Sum of Mulliken charges =  -1.00000

 Dipole moment (field-independent basis, Debye):
    X=             -8.1827    Y=              1.5623    Z=             -3.1518  Tot=              8.9069
 Quadrupole moment (field-independent basis, Debye-Ang):
   XX=            -72.1162   YY=            -45.9205   ZZ=            -50.9800
   XY=              3.6555   XZ=              2.0893   YZ=             -3.0223

 Normal termination of Gaussian 16 at Tue Jan  7 23:07:16 2020.
