 Gaussian 16, Revision A.03,
 Gaussian 16:  AS64L-G16RevA.03 25-Dec-2016

 ----------------------------------------------------------------------
 #p opt=modredundant b3lyp/6-31+g(d) scrf=(smd, solvent=tetrahydrofuran
 )
 ----------------------------------------------------------------------

 -----
 title
 -----
 Symbolic Z-matrix:
 Charge = -1 Multiplicity = 1

 SCF Done:  E(RB3LYP) =  -706.329004025     A.U. after   16 cycles
 SCF Done:  E(RB3LYP) =  -706.368922964     A.U. after   13 cycles
 SCF Done:  E(RB3LYP) =  -706.382910859     A.U. after   12 cycles
 SCF Done:  E(RB3LYP) =  -706.389868071     A.U. after   12 cycles
 SCF Done:  E(RB3LYP) =  -706.391643417     A.U. after   11 cycles
 SCF Done:  E(RB3LYP) =  -706.391731238     A.U. after   10 cycles
 SCF Done:  E(RB3LYP) =  -706.391843156     A.U. after   10 cycles
 SCF Done:  E(RB3LYP) =  -706.391931477     A.U. after   10 cycles
 SCF Done:  E(RB3LYP) =  -706.391998506     A.U. after   10 cycles
 SCF Done:  E(RB3LYP) =  -706.392030272     A.U. after   10 cycles
 SCF Done:  E(RB3LYP) =  -706.392046632     A.U. after   10 cycles
 SCF Done:  E(RB3LYP) =  -706.392050073     A.U. after    9 cycles
 SCF Done:  E(RB3LYP) =  -706.392053217     A.U. after    9 cycles
 SCF Done:  E(RB3LYP) =  -706.392055189     A.U. after    9 cycles
 SCF Done:  E(RB3LYP) =  -706.392056734     A.U. after    8 cycles
 SCF Done:  E(RB3LYP) =  -706.392059329     A.U. after    9 cycles
 SCF Done:  E(RB3LYP) =  -706.392062378     A.U. after    9 cycles
 SCF Done:  E(RB3LYP) =  -706.392065270     A.U. after    9 cycles
 SCF Done:  E(RB3LYP) =  -706.392064407     A.U. after    8 cycles
 SCF Done:  E(RB3LYP) =  -706.392065266     A.U. after    8 cycles
 Optimization completed.
    -- Stationary point found.

                         Standard orientation:
 ---------------------------------------------------------------------
 Center     Atomic      Atomic             Coordinates (Angstroms)
 Number     Number       Type             X           Y           Z
 ---------------------------------------------------------------------
      1          6           0       -0.055091    0.916922    0.231709
      2          8           0       -0.031189    1.117062    1.352870
      3          6           0       -0.003487    1.187063   -1.190468
      4          1           0        0.077734    0.257763   -1.751316
      5          1           0       -0.931153    1.712944   -1.448156
      6          1           0        0.876412    1.821846   -1.357029
      7         17           0       -2.188715   -0.878255   -0.023225
      8          6           0        2.340233   -0.516750    0.014902
      9          7           0        3.392105   -1.046018   -0.029782
 ---------------------------------------------------------------------

 The electronic state is 1-A.
 Alpha  occ. eigenvalues -- -101.43768 -19.28113 -14.27032 -10.39607 -10.23851
 Alpha  occ. eigenvalues --  -10.13713  -9.35105  -7.11012  -7.10824  -7.10813
 Alpha  occ. eigenvalues --   -1.18658  -0.82653  -0.81168  -0.68971  -0.58644
 Alpha  occ. eigenvalues --   -0.51839  -0.51444  -0.50893  -0.43333  -0.43061
 Alpha  occ. eigenvalues --   -0.36122  -0.27566  -0.27551  -0.24818  -0.23839
 Alpha  occ. eigenvalues --   -0.23135  -0.23091
 Alpha virt. eigenvalues --   -0.07193  -0.05179   0.02054   0.04607   0.04889
 Alpha virt. eigenvalues --    0.05053   0.07323   0.07671   0.08579   0.09600
 Alpha virt. eigenvalues --    0.09842   0.10992   0.11268   0.12407   0.13148

 Mulliken charges:
               1
     1  C    0.617286
     2  O   -0.155258
     3  C   -0.677304
     4  H    0.343646
     5  H    0.314674
     6  H    0.313643
     7  Cl  -0.801494
     8  C   -0.299333
     9  N   -0.655861
 Sum of Mulliken charges =  -1.00000

 Dipole moment (field-independent basis, Debye):
    X=             -3.9289    Y=             10.5292    Z=             -2.8391  Tot=             11.5914
 Quadrupole moment (field-independent basis, Debye-Ang):
   XX=           -105.1590   YY=            -48.5548   ZZ=            -43.9504
   XY=              4.0580   XZ=              0.1192   YZ=             -3.7240

 Normal termination of Gaussian 16 at Wed Jan  8 02:10:32 2020.
