 Gaussian 16, Revision A.03,
 Gaussian 16:  AS64L-G16RevA.03 25-Dec-2016

 ----------------------------------------------------------------------
 #p opt=modredundant b3lyp/6-31+g(d) scrf=(smd, solvent=tetrahydrofuran
 )
 ----------------------------------------------------------------------

 -----
 title
 -----
 Symbolic Z-matrix:
 Charge = -1 Multiplicity = 1

 SCF Done:  E(RB3LYP) =  -706.414165918     A.U. after   14 cycles
 SCF Done:  E(RB3LYP) =  -706.423566228     A.U. after   12 cycles
 SCF Done:  E(RB3LYP) =  -706.424816998     A.U. after   12 cycles
 SCF Done:  E(RB3LYP) =  -706.424869737     A.U. after   10 cycles
 SCF Done:  E(RB3LYP) =  -706.424873463     A.U. after    9 cycles
 SCF Done:  E(RB3LYP) =  -706.424873546     A.U. after    9 cycles
 Optimization completed.
    -- Stationary point found.

                         Standard orientation:
 ---------------------------------------------------------------------
 Center     Atomic      Atomic             Coordinates (Angstroms)
 Number     Number       Type             X           Y           Z
 ---------------------------------------------------------------------
      1          6           0       -0.030143    0.529022    0.231143
      2          8           0       -0.092313    0.972295    1.388981
      3          6           0       -0.265186    1.435188   -0.975532
      4          1           0       -0.178617    0.899094   -1.924527
      5          1           0       -1.264559    1.876090   -0.894764
      6          1           0        0.478643    2.241542   -0.946309
      7         17           0       -1.301026   -0.983622   -0.079928
      8          6           0        1.405490   -0.329371   -0.072373
      9          7           0        2.451360   -0.840364   -0.155271
 ---------------------------------------------------------------------

 The electronic state is 1-A.
 Alpha  occ. eigenvalues -- -101.47207 -19.08726 -14.31465 -10.29528 -10.20255
 Alpha  occ. eigenvalues --  -10.16487  -9.38883  -7.15020  -7.14435  -7.14417
 Alpha  occ. eigenvalues --   -0.99361  -0.87702  -0.76439  -0.70509  -0.56445
 Alpha  occ. eigenvalues --   -0.45638  -0.42356  -0.40128  -0.37737  -0.35513
 Alpha  occ. eigenvalues --   -0.35024  -0.31867  -0.31425  -0.26145  -0.25832
 Alpha  occ. eigenvalues --   -0.23194  -0.22248
 Alpha virt. eigenvalues --    0.01553   0.02589   0.04212   0.05047   0.05728
 Alpha virt. eigenvalues --    0.06961   0.07280   0.08833   0.09843   0.10208
 Alpha virt. eigenvalues --    0.10478   0.10846   0.13203   0.13858   0.14153

 Mulliken charges:
               1
     1  C    0.138669
     2  O   -0.469325
     3  C   -0.602628
     4  H    0.227856
     5  H    0.234081
     6  H    0.229058
     7  Cl  -0.340549
     8  C    0.231635
     9  N   -0.648797
 Sum of Mulliken charges =  -1.00000

 Dipole moment (field-independent basis, Debye):
    X=             -1.9106    Y=              2.9390    Z=             -3.3677  Tot=              4.8611
 Quadrupole moment (field-independent basis, Debye-Ang):
   XX=            -63.9314   YY=            -50.9683   ZZ=            -50.9353
   XY=              2.3958   XZ=              1.3293   YZ=             -5.1014

 Normal termination of Gaussian 16 at Wed Jan  8 00:17:50 2020.
