 Gaussian 16, Revision A.03,
 Gaussian 16:  AS64L-G16RevA.03 25-Dec-2016

 ----------------------------------------------------------------------
 #p opt=modredundant b3lyp/6-31+g(d) scrf=(smd, solvent=tetrahydrofuran
 )
 ----------------------------------------------------------------------

 -----
 title
 -----
 Symbolic Z-matrix:
 Charge = -1 Multiplicity = 1

 SCF Done:  E(RB3LYP) =  -706.325266146     A.U. after   15 cycles
 SCF Done:  E(RB3LYP) =  -706.365375346     A.U. after   13 cycles
 SCF Done:  E(RB3LYP) =  -706.381121179     A.U. after   13 cycles
 SCF Done:  E(RB3LYP) =  -706.389945235     A.U. after   12 cycles
 SCF Done:  E(RB3LYP) =  -706.392430425     A.U. after   11 cycles
 SCF Done:  E(RB3LYP) =  -706.393061654     A.U. after   11 cycles
 SCF Done:  E(RB3LYP) =  -706.393351703     A.U. after   11 cycles
 SCF Done:  E(RB3LYP) =  -706.393460609     A.U. after   11 cycles
 SCF Done:  E(RB3LYP) =  -706.393502745     A.U. after   10 cycles
 SCF Done:  E(RB3LYP) =  -706.393619761     A.U. after   11 cycles
 SCF Done:  E(RB3LYP) =  -706.393648561     A.U. after   10 cycles
 SCF Done:  E(RB3LYP) =  -706.393671259     A.U. after   10 cycles
 SCF Done:  E(RB3LYP) =  -706.393676404     A.U. after    9 cycles
 SCF Done:  E(RB3LYP) =  -706.393680688     A.U. after    9 cycles
 SCF Done:  E(RB3LYP) =  -706.393682062     A.U. after    9 cycles
 SCF Done:  E(RB3LYP) =  -706.393681797     A.U. after    8 cycles
 Optimization completed.
    -- Stationary point found.

                         Standard orientation:
 ---------------------------------------------------------------------
 Center     Atomic      Atomic             Coordinates (Angstroms)
 Number     Number       Type             X           Y           Z
 ---------------------------------------------------------------------
      1          6           0        0.299325    0.930236    0.206374
      2          8           0        0.175065    1.165963    1.315326
      3          6           0        0.136250    1.115351   -1.221289
      4          1           0        0.032293    0.144153   -1.705728
      5          1           0       -0.761014    1.727720   -1.369640
      6          1           0        1.037779    1.622411   -1.586168
      7         17           0       -2.406068   -0.767680    0.011616
      8          6           0        2.297285   -0.562266    0.031475
      9          7           0        3.256630   -1.238764   -0.022557
 ---------------------------------------------------------------------

 The electronic state is 1-A.
 Alpha  occ. eigenvalues -- -101.41763 -19.27928 -14.28716 -10.39559 -10.23703
 Alpha  occ. eigenvalues --  -10.15985  -9.33092  -7.08898  -7.08863  -7.08856
 Alpha  occ. eigenvalues --   -1.18487  -0.84400  -0.81051  -0.66985  -0.58597
 Alpha  occ. eigenvalues --   -0.51840  -0.51442  -0.51012  -0.43202  -0.42953
 Alpha  occ. eigenvalues --   -0.37448  -0.29091  -0.29070  -0.26870  -0.21784
 Alpha  occ. eigenvalues --   -0.21554  -0.21517
 Alpha virt. eigenvalues --   -0.06810  -0.05495   0.01997   0.04536   0.04566
 Alpha virt. eigenvalues --    0.05138   0.06871   0.07253   0.08500   0.09610
 Alpha virt. eigenvalues --    0.09883   0.10437   0.10745   0.12441   0.13152

 Mulliken charges:
               1
     1  C    0.702836
     2  O   -0.168872
     3  C   -0.715093
     4  H    0.343037
     5  H    0.309369
     6  H    0.314792
     7  Cl  -0.930193
     8  C   -0.217893
     9  N   -0.637983
 Sum of Mulliken charges =  -1.00000

 Dipole moment (field-independent basis, Debye):
    X=              1.1575    Y=             10.4329    Z=             -3.1261  Tot=             10.9525
 Quadrupole moment (field-independent basis, Debye-Ang):
   XX=           -105.8756   YY=            -49.9228   ZZ=            -43.9335
   XY=              4.2980   XZ=             -0.1007   YZ=             -3.5690

 Normal termination of Gaussian 16 at Wed Jan  8 03:03:23 2020.
