 Gaussian 16, Revision A.03,
 Gaussian 16:  AS64L-G16RevA.03 25-Dec-2016

 ----------------------------------------------------------------------
 #p opt=modredundant b3lyp/6-31+g(d) scrf=(smd, solvent=tetrahydrofuran
 )
 ----------------------------------------------------------------------

 -----
 title
 -----
 Symbolic Z-matrix:
 Charge = -1 Multiplicity = 1

 SCF Done:  E(RB3LYP) =  -706.350829419     A.U. after   14 cycles
 SCF Done:  E(RB3LYP) =  -706.386343338     A.U. after   13 cycles
 SCF Done:  E(RB3LYP) =  -706.395602444     A.U. after   12 cycles
 SCF Done:  E(RB3LYP) =  -706.398908800     A.U. after   12 cycles
 SCF Done:  E(RB3LYP) =  -706.399211313     A.U. after   11 cycles
 SCF Done:  E(RB3LYP) =  -706.399249932     A.U. after   10 cycles
 SCF Done:  E(RB3LYP) =  -706.399261379     A.U. after   10 cycles
 SCF Done:  E(RB3LYP) =  -706.399264968     A.U. after    9 cycles
 SCF Done:  E(RB3LYP) =  -706.399266461     A.U. after    9 cycles
 SCF Done:  E(RB3LYP) =  -706.399267084     A.U. after   10 cycles
 SCF Done:  E(RB3LYP) =  -706.399268717     A.U. after   10 cycles
 SCF Done:  E(RB3LYP) =  -706.399270403     A.U. after   10 cycles
 SCF Done:  E(RB3LYP) =  -706.399273634     A.U. after    9 cycles
 SCF Done:  E(RB3LYP) =  -706.399277931     A.U. after    9 cycles
 SCF Done:  E(RB3LYP) =  -706.399277998     A.U. after    9 cycles
 SCF Done:  E(RB3LYP) =  -706.399279159     A.U. after    9 cycles
 Optimization completed.
    -- Stationary point found.

                         Standard orientation:
 ---------------------------------------------------------------------
 Center     Atomic      Atomic             Coordinates (Angstroms)
 Number     Number       Type             X           Y           Z
 ---------------------------------------------------------------------
      1          6           0       -0.183682    0.872008    0.244839
      2          8           0       -0.179938    1.176018    1.357432
      3          6           0       -0.130861    1.347497   -1.144732
      4          1           0        0.030600    0.524327   -1.834836
      5          1           0       -1.094302    1.832049   -1.347860
      6          1           0        0.686622    2.075799   -1.204339
      7         17           0       -1.776089   -1.032584   -0.049728
      8          6           0        2.048924   -0.439698    0.010533
      9          7           0        3.086259   -0.995032   -0.041556
 ---------------------------------------------------------------------

 The electronic state is 1-A.
 Alpha  occ. eigenvalues -- -101.45507 -19.23973 -14.27178 -10.36913 -10.21979
 Alpha  occ. eigenvalues --  -10.13993  -9.36877  -7.12889  -7.12536  -7.12522
 Alpha  occ. eigenvalues --   -1.14558  -0.82828  -0.78551  -0.70764  -0.56191
 Alpha  occ. eigenvalues --   -0.49231  -0.48750  -0.48192  -0.41131  -0.40811
 Alpha  occ. eigenvalues --   -0.36097  -0.27719  -0.27671  -0.25797  -0.25012
 Alpha  occ. eigenvalues --   -0.24394  -0.24086
 Alpha virt. eigenvalues --   -0.06074  -0.02654   0.02606   0.04831   0.05224
 Alpha virt. eigenvalues --    0.05410   0.07643   0.08104   0.08802   0.09754
 Alpha virt. eigenvalues --    0.10021   0.10963   0.11244   0.12661   0.13377

 Mulliken charges:
               1
     1  C    0.363299
     2  O   -0.148437
     3  C   -0.590149
     4  H    0.311802
     5  H    0.291253
     6  H    0.290383
     7  Cl  -0.638301
     8  C   -0.224508
     9  N   -0.655343
 Sum of Mulliken charges =  -1.00000

 Dipole moment (field-independent basis, Debye):
    X=             -5.2701    Y=              9.2343    Z=             -2.6033  Tot=             10.9464
 Quadrupole moment (field-independent basis, Debye-Ang):
   XX=            -88.3812   YY=            -49.1747   ZZ=            -45.2912
   XY=              3.5083   XZ=              0.5754   YZ=             -4.1880

 Normal termination of Gaussian 16 at Wed Jan  8 01:33:14 2020.
