 Gaussian 16, Revision A.03,
 Gaussian 16:  AS64L-G16RevA.03 25-Dec-2016

 ----------------------------------------------------------------------
 #p opt=modredundant b3lyp/6-31+g(d) scrf=(smd, solvent=tetrahydrofuran
 )
 ----------------------------------------------------------------------

 -----
 title
 -----
 Symbolic Z-matrix:
 Charge = -1 Multiplicity = 1

 SCF Done:  E(RB3LYP) =  -706.418539235     A.U. after   14 cycles
 SCF Done:  E(RB3LYP) =  -706.427800950     A.U. after   12 cycles
 SCF Done:  E(RB3LYP) =  -706.428981507     A.U. after   12 cycles
 SCF Done:  E(RB3LYP) =  -706.429043945     A.U. after   11 cycles
 SCF Done:  E(RB3LYP) =  -706.429048108     A.U. after   10 cycles
 SCF Done:  E(RB3LYP) =  -706.429048644     A.U. after    8 cycles
 Optimization completed.
    -- Stationary point found.

                         Standard orientation:
 ---------------------------------------------------------------------
 Center     Atomic      Atomic             Coordinates (Angstroms)
 Number     Number       Type             X           Y           Z
 ---------------------------------------------------------------------
      1          6           0        0.026834    0.509144    0.222827
      2          8           0       -0.015688    0.966696    1.389929
      3          6           0       -0.223157    1.441597   -0.967901
      4          1           0       -0.187393    0.920275   -1.929122
      5          1           0       -1.203758    1.912581   -0.844623
      6          1           0        0.546601    2.224134   -0.954402
      7         17           0       -1.318576   -0.941205   -0.071039
      8          6           0        1.339877   -0.356475   -0.071490
      9          7           0        2.360648   -0.907952   -0.183461
 ---------------------------------------------------------------------

 The electronic state is 1-A.
 Alpha  occ. eigenvalues -- -101.47091 -19.07911 -14.32016 -10.28883 -10.21042
 Alpha  occ. eigenvalues --  -10.16260  -9.38780  -7.14911  -7.14335  -7.14314
 Alpha  occ. eigenvalues --   -0.98375  -0.88372  -0.76487  -0.70353  -0.58627
 Alpha  occ. eigenvalues --   -0.45505  -0.42222  -0.39981  -0.37581  -0.35544
 Alpha  occ. eigenvalues --   -0.35266  -0.32064  -0.31801  -0.26084  -0.25732
 Alpha  occ. eigenvalues --   -0.22635  -0.21644
 Alpha virt. eigenvalues --    0.01242   0.02627   0.04387   0.04747   0.05830
 Alpha virt. eigenvalues --    0.07004   0.07291   0.08937   0.09855   0.10201
 Alpha virt. eigenvalues --    0.10507   0.11154   0.13350   0.13909   0.14393

 Mulliken charges:
               1
     1  C    0.096843
     2  O   -0.503306
     3  C   -0.603144
     4  H    0.224192
     5  H    0.233278
     6  H    0.225970
     7  Cl  -0.343690
     8  C    0.317578
     9  N   -0.647722
 Sum of Mulliken charges =  -1.00000

 Dipole moment (field-independent basis, Debye):
    X=             -1.4211    Y=              2.6755    Z=             -3.5132  Tot=              4.6390
 Quadrupole moment (field-independent basis, Debye-Ang):
   XX=            -62.4052   YY=            -51.3525   ZZ=            -51.3418
   XY=              2.3535   XZ=              1.0912   YZ=             -5.2888

 Normal termination of Gaussian 16 at Wed Jan  8 00:17:18 2020.
