 Gaussian 16, Revision A.03,
 Gaussian 16:  AS64L-G16RevA.03 25-Dec-2016

 ----------------------------------------------------------------------
 #p opt=modredundant b3lyp/6-31+g(d) scrf=(smd, solvent=tetrahydrofuran
 )
 ----------------------------------------------------------------------

 -----
 title
 -----
 Symbolic Z-matrix:
 Charge = -1 Multiplicity = 1

 SCF Done:  E(RB3LYP) =  -706.416402289     A.U. after   13 cycles
 SCF Done:  E(RB3LYP) =  -706.422598204     A.U. after   12 cycles
 SCF Done:  E(RB3LYP) =  -706.423138107     A.U. after   12 cycles
 SCF Done:  E(RB3LYP) =  -706.423186608     A.U. after   11 cycles
 SCF Done:  E(RB3LYP) =  -706.423190652     A.U. after   10 cycles
 SCF Done:  E(RB3LYP) =  -706.423190822     A.U. after    9 cycles
 Optimization completed.
    -- Stationary point found.

                         Standard orientation:
 ---------------------------------------------------------------------
 Center     Atomic      Atomic             Coordinates (Angstroms)
 Number     Number       Type             X           Y           Z
 ---------------------------------------------------------------------
      1          6           0        0.029884    0.431337    0.213525
      2          8           0        0.008392    0.892131    1.409246
      3          6           0       -0.199815    1.446207   -0.931140
      4          1           0       -0.190116    0.984066   -1.924470
      5          1           0       -1.165640    1.935155   -0.767023
      6          1           0        0.591148    2.204739   -0.880500
      7         17           0       -1.297503   -0.894236   -0.087972
      8          6           0        1.275289   -0.354158   -0.072768
      9          7           0        2.303268   -0.885616   -0.209164
 ---------------------------------------------------------------------

 The electronic state is 1-A.
 Alpha  occ. eigenvalues -- -101.48192 -19.06048 -14.32097 -10.27753 -10.21185
 Alpha  occ. eigenvalues --  -10.15886  -9.39958  -7.16141  -7.15477  -7.15450
 Alpha  occ. eigenvalues --   -0.96489  -0.88543  -0.78261  -0.70166  -0.60729
 Alpha  occ. eigenvalues --   -0.45550  -0.42166  -0.39735  -0.37196  -0.35788
 Alpha  occ. eigenvalues --   -0.35150  -0.32072  -0.31616  -0.26851  -0.26362
 Alpha  occ. eigenvalues --   -0.21386  -0.20200
 Alpha virt. eigenvalues --    0.01730   0.02673   0.04428   0.04867   0.05979
 Alpha virt. eigenvalues --    0.07117   0.07424   0.09144   0.09846   0.10169
 Alpha virt. eigenvalues --    0.10483   0.11351   0.13775   0.13983   0.14531

 Mulliken charges:
               1
     1  C    0.017917
     2  O   -0.570464
     3  C   -0.604971
     4  H    0.217860
     5  H    0.229051
     6  H    0.221608
     7  Cl  -0.240499
     8  C    0.391718
     9  N   -0.662220
 Sum of Mulliken charges =  -1.00000

 Dipole moment (field-independent basis, Debye):
    X=             -1.7784    Y=              1.8222    Z=             -3.8752  Tot=              4.6369
 Quadrupole moment (field-independent basis, Debye-Ang):
   XX=            -60.8753   YY=            -50.8376   ZZ=            -52.3854
   XY=              2.7298   XZ=              1.0356   YZ=             -5.3501

 Normal termination of Gaussian 16 at Tue Jan  7 23:56:46 2020.
