 Gaussian 16, Revision A.03,
 Gaussian 16:  AS64L-G16RevA.03 25-Dec-2016

 ----------------------------------------------------------------------
 #p opt=modredundant b3lyp/6-31+g(d) scrf=(smd, solvent=tetrahydrofuran
 )
 ----------------------------------------------------------------------

 -----
 title
 -----
 Symbolic Z-matrix:
 Charge = -1 Multiplicity = 1

 SCF Done:  E(RB3LYP) =  -706.358520852     A.U. after   14 cycles
 SCF Done:  E(RB3LYP) =  -706.391778971     A.U. after   12 cycles
 SCF Done:  E(RB3LYP) =  -706.401487702     A.U. after   12 cycles
 SCF Done:  E(RB3LYP) =  -706.405254115     A.U. after   12 cycles
 SCF Done:  E(RB3LYP) =  -706.405706180     A.U. after   11 cycles
 SCF Done:  E(RB3LYP) =  -706.405744243     A.U. after   10 cycles
 SCF Done:  E(RB3LYP) =  -706.405767014     A.U. after   10 cycles
 SCF Done:  E(RB3LYP) =  -706.405776061     A.U. after   10 cycles
 SCF Done:  E(RB3LYP) =  -706.405783504     A.U. after   10 cycles
 SCF Done:  E(RB3LYP) =  -706.405785316     A.U. after    9 cycles
 Optimization completed.
    -- Stationary point found.

                         Standard orientation:
 ---------------------------------------------------------------------
 Center     Atomic      Atomic             Coordinates (Angstroms)
 Number     Number       Type             X           Y           Z
 ---------------------------------------------------------------------
      1          6           0        0.148705    0.895058    0.239285
      2          8           0        0.060045    1.237283    1.346084
      3          6           0       -0.010052    1.403394   -1.137261
      4          1           0       -0.022173    0.589128   -1.856586
      5          1           0       -0.940702    1.978601   -1.181714
      6          1           0        0.850964    2.059376   -1.325170
      7         17           0       -1.812857   -0.941711   -0.022541
      8          6           0        1.790961   -0.547237   -0.011278
      9          7           0        2.696063   -1.289082   -0.080928
 ---------------------------------------------------------------------

 The electronic state is 1-A.
 Alpha  occ. eigenvalues -- -101.42924 -19.21879 -14.29710 -10.35837 -10.21059
 Alpha  occ. eigenvalues --  -10.17572  -9.34293  -7.10185  -7.10012  -7.10007
 Alpha  occ. eigenvalues --   -1.12527  -0.85507  -0.77399  -0.68276  -0.55394
 Alpha  occ. eigenvalues --   -0.48817  -0.47948  -0.46982  -0.40250  -0.39867
 Alpha  occ. eigenvalues --   -0.37268  -0.30030  -0.29956  -0.27755  -0.22918
 Alpha  occ. eigenvalues --   -0.22406  -0.22390
 Alpha virt. eigenvalues --   -0.04847  -0.01441   0.02572   0.04921   0.04969
 Alpha virt. eigenvalues --    0.05722   0.06953   0.07714   0.08862   0.10008
 Alpha virt. eigenvalues --    0.10108   0.10353   0.10888   0.12721   0.13510

 Mulliken charges:
               1
     1  C    0.454540
     2  O   -0.191276
     3  C   -0.629829
     4  H    0.296750
     5  H    0.279499
     6  H    0.282849
     7  Cl  -0.792641
     8  C   -0.071234
     9  N   -0.628657
 Sum of Mulliken charges =  -1.00000

 Dipole moment (field-independent basis, Debye):
    X=              0.0636    Y=              9.3230    Z=             -2.5955  Tot=              9.6778
 Quadrupole moment (field-independent basis, Debye-Ang):
   XX=            -79.6947   YY=            -51.6284   ZZ=            -46.0149
   XY=              2.8825   XZ=              0.4996   YZ=             -4.5758

 Normal termination of Gaussian 16 at Wed Jan  8 01:48:21 2020.
