 Gaussian 16, Revision A.03,
 Gaussian 16:  AS64L-G16RevA.03 25-Dec-2016

 ----------------------------------------------------------------------
 #p opt=modredundant b3lyp/6-31+g(d) scrf=(smd, solvent=tetrahydrofuran
 )
 ----------------------------------------------------------------------

 -----
 title
 -----
 Symbolic Z-matrix:
 Charge = -1 Multiplicity = 1

 SCF Done:  E(RB3LYP) =  -706.353720861     A.U. after   14 cycles
 SCF Done:  E(RB3LYP) =  -706.388987309     A.U. after   13 cycles
 SCF Done:  E(RB3LYP) =  -706.397821097     A.U. after   12 cycles
 SCF Done:  E(RB3LYP) =  -706.401112779     A.U. after   12 cycles
 SCF Done:  E(RB3LYP) =  -706.401412060     A.U. after   11 cycles
 SCF Done:  E(RB3LYP) =  -706.401444017     A.U. after   10 cycles
 SCF Done:  E(RB3LYP) =  -706.401457850     A.U. after   10 cycles
 SCF Done:  E(RB3LYP) =  -706.401459503     A.U. after    8 cycles
 SCF Done:  E(RB3LYP) =  -706.401460372     A.U. after    9 cycles
 SCF Done:  E(RB3LYP) =  -706.401461004     A.U. after    9 cycles
 SCF Done:  E(RB3LYP) =  -706.401463100     A.U. after   10 cycles
 SCF Done:  E(RB3LYP) =  -706.401466043     A.U. after    9 cycles
 SCF Done:  E(RB3LYP) =  -706.401469668     A.U. after    9 cycles
 SCF Done:  E(RB3LYP) =  -706.401474296     A.U. after    9 cycles
 SCF Done:  E(RB3LYP) =  -706.401476973     A.U. after    9 cycles
 Optimization completed.
    -- Stationary point found.

                         Standard orientation:
 ---------------------------------------------------------------------
 Center     Atomic      Atomic             Coordinates (Angstroms)
 Number     Number       Type             X           Y           Z
 ---------------------------------------------------------------------
      1          6           0       -0.279908    0.832042    0.249191
      2          8           0       -0.230798    1.129351    1.364728
      3          6           0       -0.168267    1.345993   -1.125320
      4          1           0        0.035635    0.542357   -1.827662
      5          1           0       -1.130886    1.816891   -1.362676
      6          1           0        0.635295    2.090943   -1.133094
      7         17           0       -1.750667   -1.038592   -0.063215
      8          6           0        2.086572   -0.443758   -0.000025
      9          7           0        3.176757   -0.890656   -0.037545
 ---------------------------------------------------------------------

 The electronic state is 1-A.
 Alpha  occ. eigenvalues -- -101.46641 -19.23523 -14.26706 -10.36561 -10.21739
 Alpha  occ. eigenvalues --  -10.13342  -9.38025  -7.14089  -7.13656  -7.13637
 Alpha  occ. eigenvalues --   -1.14101  -0.82331  -0.78371  -0.71894  -0.55951
 Alpha  occ. eigenvalues --   -0.48945  -0.48415  -0.47990  -0.40861  -0.40579
 Alpha  occ. eigenvalues --   -0.35742  -0.27305  -0.27244  -0.26697  -0.25575
 Alpha  occ. eigenvalues --   -0.25272  -0.23991
 Alpha virt. eigenvalues --   -0.05711  -0.02695   0.02686   0.04813   0.05220
 Alpha virt. eigenvalues --    0.05465   0.07809   0.08180   0.08825   0.09689
 Alpha virt. eigenvalues --    0.10027   0.11134   0.11343   0.12703   0.13366

 Mulliken charges:
               1
     1  C    0.347894
     2  O   -0.158072
     3  C   -0.606449
     4  H    0.309322
     5  H    0.289699
     6  H    0.286965
     7  Cl  -0.562102
     8  C   -0.249820
     9  N   -0.657436
 Sum of Mulliken charges =  -1.00000

 Dipole moment (field-independent basis, Debye):
    X=             -6.7950    Y=              8.6055    Z=             -2.5553  Tot=             11.2586
 Quadrupole moment (field-independent basis, Debye-Ang):
   XX=            -89.7695   YY=            -48.3500   ZZ=            -45.5186
   XY=              3.6297   XZ=              0.6523   YZ=             -4.0835

 Normal termination of Gaussian 16 at Wed Jan  8 01:21:22 2020.
