 Gaussian 16, Revision A.03,
 Gaussian 16:  AS64L-G16RevA.03 25-Dec-2016

 ----------------------------------------------------------------------
 #p opt=modredundant b3lyp/6-31+g(d) scrf=(smd, solvent=tetrahydrofuran
 )
 ----------------------------------------------------------------------

 -----
 title
 -----
 Symbolic Z-matrix:
 Charge = -1 Multiplicity = 1

 SCF Done:  E(RB3LYP) =  -706.411530574     A.U. after   14 cycles
 SCF Done:  E(RB3LYP) =  -706.428397111     A.U. after   12 cycles
 SCF Done:  E(RB3LYP) =  -706.431971458     A.U. after   12 cycles
 SCF Done:  E(RB3LYP) =  -706.432191041     A.U. after   11 cycles
 SCF Done:  E(RB3LYP) =  -706.432211037     A.U. after    9 cycles
 SCF Done:  E(RB3LYP) =  -706.432214899     A.U. after   10 cycles
 SCF Done:  E(RB3LYP) =  -706.432215252     A.U. after    8 cycles
 Optimization completed.
    -- Stationary point found.

                         Standard orientation:
 ---------------------------------------------------------------------
 Center     Atomic      Atomic             Coordinates (Angstroms)
 Number     Number       Type             X           Y           Z
 ---------------------------------------------------------------------
      1          6           0        0.090505    0.629266    0.227850
      2          8           0        0.037653    1.074601    1.365842
      3          6           0       -0.169400    1.452102   -1.017363
      4          1           0       -0.154268    0.845866   -1.924961
      5          1           0       -1.138538    1.950794   -0.921091
      6          1           0        0.617071    2.216999   -1.079551
      7         17           0       -1.416904   -0.950162   -0.042573
      8          6           0        1.398388   -0.417007   -0.063280
      9          7           0        2.363559   -1.063412   -0.165805
 ---------------------------------------------------------------------

 The electronic state is 1-A.
 Alpha  occ. eigenvalues -- -101.45206 -19.11296 -14.31976 -10.30385 -10.20957
 Alpha  occ. eigenvalues --  -10.17129  -9.36771  -7.12802  -7.12392  -7.12377
 Alpha  occ. eigenvalues --   -1.01843  -0.88201  -0.74370  -0.70425  -0.57042
 Alpha  occ. eigenvalues --   -0.46301  -0.42695  -0.41446  -0.38378  -0.35729
 Alpha  occ. eigenvalues --   -0.35341  -0.32012  -0.31951  -0.25027  -0.24636
 Alpha  occ. eigenvalues --   -0.23838  -0.23199
 Alpha virt. eigenvalues --   -0.00324   0.02526   0.04034   0.04634   0.05604
 Alpha virt. eigenvalues --    0.06992   0.07102   0.08723   0.09820   0.10214
 Alpha virt. eigenvalues --    0.10541   0.10788   0.12595   0.13701   0.14100

 Mulliken charges:
               1
     1  C    0.197012
     2  O   -0.408026
     3  C   -0.607178
     4  H    0.237676
     5  H    0.243139
     6  H    0.235943
     7  Cl  -0.524252
     8  C    0.255142
     9  N   -0.629454
 Sum of Mulliken charges =  -1.00000

 Dipole moment (field-independent basis, Debye):
    X=             -0.4156    Y=              4.4043    Z=             -3.0644  Tot=              5.3816
 Quadrupole moment (field-independent basis, Debye-Ang):
   XX=            -64.5946   YY=            -52.2950   ZZ=            -49.8191
   XY=              1.8893   XZ=              0.8861   YZ=             -5.1997

 Normal termination of Gaussian 16 at Wed Jan  8 00:46:27 2020.
