 Gaussian 16, Revision A.03,
 Gaussian 16:  AS64L-G16RevA.03 25-Dec-2016

 ----------------------------------------------------------------------
 #p opt=modredundant b3lyp/6-31+g(d) scrf=(smd, solvent=tetrahydrofuran
 )
 ----------------------------------------------------------------------

 -----
 title
 -----
 Symbolic Z-matrix:
 Charge = -1 Multiplicity = 1

 SCF Done:  E(RB3LYP) =  -706.371979063     A.U. after   14 cycles
 SCF Done:  E(RB3LYP) =  -706.402807881     A.U. after   12 cycles
 SCF Done:  E(RB3LYP) =  -706.409060747     A.U. after   12 cycles
 SCF Done:  E(RB3LYP) =  -706.410690404     A.U. after   12 cycles
 SCF Done:  E(RB3LYP) =  -706.410807011     A.U. after   11 cycles
 SCF Done:  E(RB3LYP) =  -706.410832613     A.U. after   10 cycles
 SCF Done:  E(RB3LYP) =  -706.410850594     A.U. after   11 cycles
 SCF Done:  E(RB3LYP) =  -706.410853028     A.U. after   10 cycles
 SCF Done:  E(RB3LYP) =  -706.410853648     A.U. after    9 cycles
 SCF Done:  E(RB3LYP) =  -706.410854153     A.U. after    8 cycles
 SCF Done:  E(RB3LYP) =  -706.410855064     A.U. after    9 cycles
 SCF Done:  E(RB3LYP) =  -706.410855647     A.U. after    9 cycles
 SCF Done:  E(RB3LYP) =  -706.410856327     A.U. after    9 cycles
 SCF Done:  E(RB3LYP) =  -706.410856708     A.U. after    8 cycles
 SCF Done:  E(RB3LYP) =  -706.410856753     A.U. after    8 cycles
 Optimization completed.
    -- Stationary point found.

                         Standard orientation:
 ---------------------------------------------------------------------
 Center     Atomic      Atomic             Coordinates (Angstroms)
 Number     Number       Type             X           Y           Z
 ---------------------------------------------------------------------
      1          6           0       -0.440788    0.678500    0.265217
      2          8           0       -0.348930    0.967962    1.397053
      3          6           0       -0.318012    1.408735   -1.023446
      4          1           0       -0.038644    0.739329   -1.833483
      5          1           0       -1.302544    1.847374   -1.235216
      6          1           0        0.424519    2.201989   -0.899751
      7         17           0       -1.534497   -1.073596   -0.114209
      8          6           0        2.040603   -0.323038   -0.094811
      9          7           0        3.157677   -0.695206   -0.021168
 ---------------------------------------------------------------------

 The electronic state is 1-A.
 Alpha  occ. eigenvalues -- -101.49527 -19.19808 -14.26255 -10.34378 -10.20043
 Alpha  occ. eigenvalues --  -10.12736  -9.41029  -7.17218  -7.16587  -7.16546
 Alpha  occ. eigenvalues --   -1.10505  -0.81866  -0.78051  -0.74070  -0.54260
 Alpha  occ. eigenvalues --   -0.46916  -0.46678  -0.46206  -0.39199  -0.38767
 Alpha  occ. eigenvalues --   -0.35294  -0.28561  -0.28099  -0.27407  -0.26809
 Alpha  occ. eigenvalues --   -0.26740  -0.23473
 Alpha virt. eigenvalues --   -0.03332  -0.00872   0.03043   0.04858   0.05341
 Alpha virt. eigenvalues --    0.05769   0.08219   0.08485   0.08947   0.09656
 Alpha virt. eigenvalues --    0.10301   0.11253   0.11382   0.12943   0.13494

 Mulliken charges:
               1
     1  C    0.153588
     2  O   -0.205212
     3  C   -0.580259
     4  H    0.286286
     5  H    0.270450
     6  H    0.270639
     7  Cl  -0.293670
     8  C   -0.238182
     9  N   -0.663640
 Sum of Mulliken charges =  -1.00000

 Dipole moment (field-independent basis, Debye):
    X=             -9.1049    Y=              6.1437    Z=             -2.3499  Tot=             11.2324
 Quadrupole moment (field-independent basis, Debye-Ang):
   XX=            -85.3570   YY=            -47.1318   ZZ=            -47.1231
   XY=              3.6291   XZ=              1.1068   YZ=             -3.8104

 Normal termination of Gaussian 16 at Wed Jan  8 00:44:02 2020.
