 Gaussian 16, Revision A.03,
 Gaussian 16:  AS64L-G16RevA.03 25-Dec-2016

 ----------------------------------------------------------------------
 #p opt=modredundant b3lyp/6-31+g(d) scrf=(smd, solvent=tetrahydrofuran
 )
 ----------------------------------------------------------------------

 -----
 title
 -----
 Symbolic Z-matrix:
 Charge = -1 Multiplicity = 1

 SCF Done:  E(RB3LYP) =  -706.400610207     A.U. after   14 cycles
 SCF Done:  E(RB3LYP) =  -706.428645006     A.U. after   13 cycles
 SCF Done:  E(RB3LYP) =  -706.446401715     A.U. after   14 cycles
 SCF Done:  E(RB3LYP) =  -706.447629055     A.U. after   12 cycles
 SCF Done:  E(RB3LYP) =  -706.447818479     A.U. after   11 cycles
 SCF Done:  E(RB3LYP) =  -706.447872225     A.U. after   11 cycles
 SCF Done:  E(RB3LYP) =  -706.447935886     A.U. after   11 cycles
 SCF Done:  E(RB3LYP) =  -706.447940644     A.U. after   10 cycles
 SCF Done:  E(RB3LYP) =  -706.447940871     A.U. after   10 cycles
 SCF Done:  E(RB3LYP) =  -706.447940471     A.U. after    8 cycles
 Optimization completed.
    -- Stationary point found.

                         Standard orientation:
 ---------------------------------------------------------------------
 Center     Atomic      Atomic             Coordinates (Angstroms)
 Number     Number       Type             X           Y           Z
 ---------------------------------------------------------------------
      1          6           0       -0.719194   -0.459621    0.183514
      2          8           0       -0.910317   -0.875552    1.327707
      3          6           0       -0.623932   -1.378979   -1.014199
      4          1           0       -0.142783   -0.902203   -1.869970
      5          1           0       -0.079881   -2.284233   -0.734719
      6          1           0       -1.650649   -1.658055   -1.295426
      7         17           0        1.891608    0.213092    0.038012
      8          6           0       -0.952037    0.896433   -0.075142
      9          7           0       -1.318644    1.982763   -0.276112
 ---------------------------------------------------------------------

 The electronic state is 1-A.
 Alpha  occ. eigenvalues -- -101.42481 -19.14057 -14.34353 -10.29558 -10.23093
 Alpha  occ. eigenvalues --  -10.17443  -9.33885  -7.09760  -7.09608  -7.09602
 Alpha  occ. eigenvalues --   -1.03857  -0.90761  -0.75211  -0.67998  -0.65454
 Alpha  occ. eigenvalues --   -0.47675  -0.43902  -0.43769  -0.39058  -0.37453
 Alpha  occ. eigenvalues --   -0.36792  -0.33499  -0.32516  -0.25946  -0.22329
 Alpha  occ. eigenvalues --   -0.22088  -0.22040
 Alpha virt. eigenvalues --   -0.05607   0.02386   0.02771   0.04675   0.05845
 Alpha virt. eigenvalues --    0.06905   0.08178   0.08881   0.09521   0.10397
 Alpha virt. eigenvalues --    0.10666   0.11537   0.12922   0.13647   0.14223

 Mulliken charges:
               1
     1  C    0.211826
     2  O   -0.411651
     3  C   -0.636628
     4  H    0.245641
     5  H    0.251924
     6  H    0.246090
     7  Cl  -0.796754
     8  C    0.457826
     9  N   -0.568273
 Sum of Mulliken charges =  -1.00000

 Dipole moment (field-independent basis, Debye):
    X=             -5.5113    Y=             -3.8624    Z=             -3.0226  Tot=              7.3777
 Quadrupole moment (field-independent basis, Debye-Ang):
   XX=            -63.9531   YY=            -54.4013   ZZ=            -49.1716
   XY=              2.5676   XZ=              2.0510   YZ=              4.8498

 Normal termination of Gaussian 16 at Wed Jan  8 01:44:58 2020.
