 Gaussian 16, Revision A.03,
 Gaussian 16:  AS64L-G16RevA.03 25-Dec-2016

 ----------------------------------------------------------------------
 #p opt=modredundant b3lyp/6-31+g(d) scrf=(smd, solvent=tetrahydrofuran
 )
 ----------------------------------------------------------------------

 -----
 title
 -----
 Symbolic Z-matrix:
 Charge = -1 Multiplicity = 1

 SCF Done:  E(RB3LYP) =  -706.376005609     A.U. after   14 cycles
 SCF Done:  E(RB3LYP) =  -706.383443781     A.U. after   13 cycles
 SCF Done:  E(RB3LYP) =  -706.383911456     A.U. after   12 cycles
 SCF Done:  E(RB3LYP) =  -706.384000860     A.U. after   11 cycles
 SCF Done:  E(RB3LYP) =  -706.384024881     A.U. after   11 cycles
 SCF Done:  E(RB3LYP) =  -706.384027981     A.U. after   10 cycles
 SCF Done:  E(RB3LYP) =  -706.384028121     A.U. after   10 cycles
 Optimization completed.
    -- Stationary point found.

                         Standard orientation:
 ---------------------------------------------------------------------
 Center     Atomic      Atomic             Coordinates (Angstroms)
 Number     Number       Type             X           Y           Z
 ---------------------------------------------------------------------
      1          6           0        0.081177    0.320551    0.192597
      2          8           0        0.121115    0.773931    1.440632
      3          6           0       -0.085622    1.463704   -0.872806
      4          1           0       -0.142634    1.091307   -1.902780
      5          1           0       -1.002383    2.008578   -0.627218
      6          1           0        0.768412    2.144202   -0.781401
      7         17           0       -1.316928   -0.773332   -0.105263
      8          6           0        1.142879   -0.382393   -0.069431
      9          7           0        2.137838   -0.957153   -0.275193
 ---------------------------------------------------------------------

 The electronic state is 1-A.
 Alpha  occ. eigenvalues -- -101.49530 -19.04690 -14.31638 -10.25513 -10.20532
 Alpha  occ. eigenvalues --  -10.15874  -9.41379  -7.17625  -7.16855  -7.16825
 Alpha  occ. eigenvalues --   -0.95717  -0.88069  -0.80405  -0.70896  -0.64808
 Alpha  occ. eigenvalues --   -0.46377  -0.42940  -0.40401  -0.36981  -0.36341
 Alpha  occ. eigenvalues --   -0.35190  -0.31238  -0.30668  -0.27540  -0.26917
 Alpha  occ. eigenvalues --   -0.19970  -0.18853
 Alpha virt. eigenvalues --    0.01237   0.02718   0.04162   0.05201   0.06082
 Alpha virt. eigenvalues --    0.07331   0.07960   0.09572   0.09874   0.10143
 Alpha virt. eigenvalues --    0.10535   0.11522   0.14015   0.14229   0.14745

 Mulliken charges:
               1
     1  C   -0.145019
     2  O   -0.643448
     3  C   -0.604979
     4  H    0.214930
     5  H    0.227805
     6  H    0.218953
     7  Cl  -0.120217
     8  C    0.555191
     9  N   -0.703216
 Sum of Mulliken charges =  -1.00000

 Dipole moment (field-independent basis, Debye):
    X=             -2.4030    Y=              1.3975    Z=             -4.2425  Tot=              5.0721
 Quadrupole moment (field-independent basis, Debye-Ang):
   XX=            -58.8195   YY=            -50.1630   ZZ=            -53.4663
   XY=              3.4545   XZ=              0.6747   YZ=             -5.3123

 Normal termination of Gaussian 16 at Tue Jan  7 23:32:34 2020.
