 Gaussian 16, Revision A.03,
 Gaussian 16:  AS64L-G16RevA.03 25-Dec-2016

 ----------------------------------------------------------------------
 #p opt=modredundant b3lyp/6-31+g(d) scrf=(smd, solvent=tetrahydrofuran
 )
 ----------------------------------------------------------------------

 -----
 title
 -----
 Symbolic Z-matrix:
 Charge = -1 Multiplicity = 1

 SCF Done:  E(RB3LYP) =  -706.396806901     A.U. after   14 cycles
 SCF Done:  E(RB3LYP) =  -706.397487886     A.U. after   11 cycles
 SCF Done:  E(RB3LYP) =  -706.397564683     A.U. after   11 cycles
 SCF Done:  E(RB3LYP) =  -706.397570195     A.U. after   10 cycles
 SCF Done:  E(RB3LYP) =  -706.397571144     A.U. after    9 cycles
 Optimization completed.
    -- Stationary point found.

                         Standard orientation:
 ---------------------------------------------------------------------
 Center     Atomic      Atomic             Coordinates (Angstroms)
 Number     Number       Type             X           Y           Z
 ---------------------------------------------------------------------
      1          6           0       -0.160317    0.353455    0.221413
      2          8           0       -0.223882    0.754898    1.436789
      3          6           0       -0.322727    1.444435   -0.867460
      4          1           0       -0.183809    1.058855   -1.884366
      5          1           0       -1.332133    1.864864   -0.777319
      6          1           0        0.405920    2.240106   -0.679210
      7         17           0       -1.182258   -0.950209   -0.160813
      8          6           0        1.389805   -0.268486   -0.095308
      9          7           0        2.508413   -0.603696   -0.138782
 ---------------------------------------------------------------------

 The electronic state is 1-A.
 Alpha  occ. eigenvalues -- -101.50496 -19.05114 -14.30718 -10.28292 -10.19277
 Alpha  occ. eigenvalues --  -10.15626  -9.42449  -7.18723  -7.17895  -7.17870
 Alpha  occ. eigenvalues --   -0.96362  -0.86937  -0.82192  -0.69664  -0.56116
 Alpha  occ. eigenvalues --   -0.46746  -0.42094  -0.39563  -0.37171  -0.35393
 Alpha  occ. eigenvalues --   -0.34699  -0.31698  -0.30681  -0.28007  -0.27321
 Alpha  occ. eigenvalues --   -0.20909  -0.19646
 Alpha virt. eigenvalues --    0.02432   0.03996   0.04658   0.05618   0.06484
 Alpha virt. eigenvalues --    0.06868   0.07581   0.09124   0.09724   0.10185
 Alpha virt. eigenvalues --    0.10261   0.11119   0.13917   0.14104   0.14596

 Mulliken charges:
               1
     1  C    0.079825
     2  O   -0.582357
     3  C   -0.611285
     4  H    0.214543
     5  H    0.220561
     6  H    0.223286
     7  Cl  -0.043660
     8  C    0.174372
     9  N   -0.675286
 Sum of Mulliken charges =  -1.00000

 Dipole moment (field-independent basis, Debye):
    X=             -3.5431    Y=              0.9652    Z=             -4.0986  Tot=              5.5031
 Quadrupole moment (field-independent basis, Debye-Ang):
   XX=            -63.2355   YY=            -48.5989   ZZ=            -53.0083
   XY=              3.2835   XZ=              2.0307   YZ=             -4.4915

 Normal termination of Gaussian 16 at Tue Jan  7 23:17:45 2020.
