 Gaussian 16, Revision A.03,
 Gaussian 16:  AS64L-G16RevA.03 25-Dec-2016

 ----------------------------------------------------------------------
 #p opt=modredundant b3lyp/6-31+g(d) scrf=(smd, solvent=tetrahydrofuran
 )
 ----------------------------------------------------------------------

 -----
 title
 -----
 Symbolic Z-matrix:
 Charge = -1 Multiplicity = 1

 SCF Done:  E(RB3LYP) =  -706.234065376     A.U. after   14 cycles
 SCF Done:  E(RB3LYP) =  -706.250883242     A.U. after   13 cycles
 SCF Done:  E(RB3LYP) =  -706.254489725     A.U. after   13 cycles
 SCF Done:  E(RB3LYP) =  -706.254777118     A.U. after   12 cycles
 SCF Done:  E(RB3LYP) =  -706.255101680     A.U. after   12 cycles
 SCF Done:  E(RB3LYP) =  -706.255193860     A.U. after   12 cycles
 SCF Done:  E(RB3LYP) =  -706.255236334     A.U. after   11 cycles
 SCF Done:  E(RB3LYP) =  -706.255247133     A.U. after   11 cycles
 SCF Done:  E(RB3LYP) =  -706.255247450     A.U. after    9 cycles
 Optimization completed.
    -- Stationary point found.

                         Standard orientation:
 ---------------------------------------------------------------------
 Center     Atomic      Atomic             Coordinates (Angstroms)
 Number     Number       Type             X           Y           Z
 ---------------------------------------------------------------------
      1          6           0       -0.021509    0.144167    0.139940
      2          8           0        0.033459    0.497007    1.517044
      3          6           0       -0.119294    1.518171   -0.700385
      4          1           0       -0.132152    1.340146   -1.784075
      5          1           0       -1.052550    1.996937   -0.386887
      6          1           0        0.726678    2.158336   -0.437621
      7         17           0       -1.192758   -0.728244   -0.202223
      8          6           0        1.068906   -0.307387   -0.077076
      9          7           0        2.128374   -0.745863   -0.323549
 ---------------------------------------------------------------------

 The electronic state is 1-A.
 Alpha  occ. eigenvalues -- -101.51960 -19.03101 -14.29974 -10.23187 -10.19216
 Alpha  occ. eigenvalues --  -10.16171  -9.44389  -7.20710  -7.19742  -7.19716
 Alpha  occ. eigenvalues --   -0.98355  -0.86715  -0.83685  -0.71563  -0.66159
 Alpha  occ. eigenvalues --   -0.49959  -0.44774  -0.41720  -0.37949  -0.36606
 Alpha  occ. eigenvalues --   -0.34787  -0.31148  -0.29280  -0.28001  -0.25487
 Alpha  occ. eigenvalues --   -0.17773  -0.17268
 Alpha virt. eigenvalues --    0.02691   0.03620   0.04363   0.05355   0.06305
 Alpha virt. eigenvalues --    0.07298   0.08195   0.09775   0.09952   0.10394
 Alpha virt. eigenvalues --    0.10549   0.11607   0.14108   0.14613   0.15282

 Mulliken charges:
               1
     1  C   -0.174030
     2  O   -0.725529
     3  C   -0.645715
     4  H    0.213332
     5  H    0.225491
     6  H    0.222734
     7  Cl   0.119412
     8  C    0.553994
     9  N   -0.789690
 Sum of Mulliken charges =  -1.00000

 Dipole moment (field-independent basis, Debye):
    X=             -4.1155    Y=              1.0754    Z=             -4.9479  Tot=              6.5250
 Quadrupole moment (field-independent basis, Debye-Ang):
   XX=            -58.4048   YY=            -47.3446   ZZ=            -55.3578
   XY=              4.1905   XZ=              1.6949   YZ=             -4.0555

 Normal termination of Gaussian 16 at Tue Jan  7 22:50:31 2020.
