 Gaussian 16, Revision A.03,
 Gaussian 16:  AS64L-G16RevA.03 25-Dec-2016

 ----------------------------------------------------------------------
 #p opt=modredundant b3lyp/6-31+g(d) scrf=(smd, solvent=tetrahydrofuran
 )
 ----------------------------------------------------------------------

 -----
 title
 -----
 Symbolic Z-matrix:
 Charge = -1 Multiplicity = 1

 SCF Done:  E(RB3LYP) =  -706.339570846     A.U. after   15 cycles
 SCF Done:  E(RB3LYP) =  -706.377169460     A.U. after   13 cycles
 SCF Done:  E(RB3LYP) =  -706.389240080     A.U. after   12 cycles
 SCF Done:  E(RB3LYP) =  -706.394653908     A.U. after   11 cycles
 SCF Done:  E(RB3LYP) =  -706.395675678     A.U. after   11 cycles
 SCF Done:  E(RB3LYP) =  -706.395754643     A.U. after   10 cycles
 SCF Done:  E(RB3LYP) =  -706.395808092     A.U. after   10 cycles
 SCF Done:  E(RB3LYP) =  -706.395823626     A.U. after   10 cycles
 SCF Done:  E(RB3LYP) =  -706.395833640     A.U. after   10 cycles
 SCF Done:  E(RB3LYP) =  -706.395835260     A.U. after    9 cycles
 SCF Done:  E(RB3LYP) =  -706.395836616     A.U. after   10 cycles
 SCF Done:  E(RB3LYP) =  -706.395836496     A.U. after    9 cycles
 SCF Done:  E(RB3LYP) =  -706.395836990     A.U. after    9 cycles
 SCF Done:  E(RB3LYP) =  -706.395837136     A.U. after    9 cycles
 Optimization completed.
    -- Stationary point found.

                         Standard orientation:
 ---------------------------------------------------------------------
 Center     Atomic      Atomic             Coordinates (Angstroms)
 Number     Number       Type             X           Y           Z
 ---------------------------------------------------------------------
      1          6           0        0.062513    0.940826    0.237796
      2          8           0        0.003100    1.204959    1.351979
      3          6           0        0.005338    1.313242   -1.172718
      4          1           0        0.020539    0.430770   -1.806837
      5          1           0       -0.919647    1.884392   -1.317209
      6          1           0        0.886899    1.939075   -1.363807
      7         17           0       -2.004006   -0.930073   -0.025334
      8          6           0        2.063293   -0.540196    0.006593
      9          7           0        3.038376   -1.195130   -0.046761
 ---------------------------------------------------------------------

 The electronic state is 1-A.
 Alpha  occ. eigenvalues -- -101.43151 -19.25857 -14.28167 -10.38218 -10.22837
 Alpha  occ. eigenvalues --  -10.15325  -9.34497  -7.10385  -7.10222  -7.10215
 Alpha  occ. eigenvalues --   -1.16443  -0.83850  -0.79690  -0.68407  -0.57313
 Alpha  occ. eigenvalues --   -0.50462  -0.50132  -0.49392  -0.42157  -0.41855
 Alpha  occ. eigenvalues --   -0.36911  -0.28593  -0.28564  -0.26219  -0.23201
 Alpha  occ. eigenvalues --   -0.22613  -0.22588
 Alpha virt. eigenvalues --   -0.06609  -0.03691   0.02294   0.04752   0.04940
 Alpha virt. eigenvalues --    0.05297   0.07214   0.07722   0.08654   0.09768
 Alpha virt. eigenvalues --    0.09931   0.10644   0.11036   0.12557   0.13362

 Mulliken charges:
               1
     1  C    0.480792
     2  O   -0.143622
     3  C   -0.616470
     4  H    0.325333
     5  H    0.299417
     6  H    0.302978
     7  Cl  -0.810002
     8  C   -0.194412
     9  N   -0.644014
 Sum of Mulliken charges =  -1.00000

 Dipole moment (field-independent basis, Debye):
    X=             -1.6965    Y=             10.5751    Z=             -2.6904  Tot=             11.0431
 Quadrupole moment (field-independent basis, Debye-Ang):
   XX=            -91.8641   YY=            -50.0006   ZZ=            -44.6742
   XY=              3.6604   XZ=              0.2492   YZ=             -4.1739

 Normal termination of Gaussian 16 at Wed Jan  8 02:02:52 2020.
