 Gaussian 16, Revision A.03,
 Gaussian 16:  AS64L-G16RevA.03 25-Dec-2016

 ----------------------------------------------------------------------
 #p opt=modredundant b3lyp/6-31+g(d) scrf=(smd, solvent=tetrahydrofuran
 )
 ----------------------------------------------------------------------

 -----
 title
 -----
 Symbolic Z-matrix:
 Charge = -1 Multiplicity = 1

 SCF Done:  E(RB3LYP) =  -706.330887314     A.U. after   15 cycles
 SCF Done:  E(RB3LYP) =  -706.360680644     A.U. after   13 cycles
 SCF Done:  E(RB3LYP) =  -706.380082433     A.U. after   15 cycles
 SCF Done:  E(RB3LYP) =  -706.381355049     A.U. after   12 cycles
 SCF Done:  E(RB3LYP) =  -706.381516587     A.U. after   12 cycles
 SCF Done:  E(RB3LYP) =  -706.381614694     A.U. after   12 cycles
 SCF Done:  E(RB3LYP) =  -706.381628579     A.U. after   11 cycles
 SCF Done:  E(RB3LYP) =  -706.381625447     A.U. after   10 cycles
 SCF Done:  E(RB3LYP) =  -706.381630144     A.U. after    9 cycles
 SCF Done:  E(RB3LYP) =  -706.381627216     A.U. after    9 cycles
 Optimization completed.
    -- Stationary point found.

                         Standard orientation:
 ---------------------------------------------------------------------
 Center     Atomic      Atomic             Coordinates (Angstroms)
 Number     Number       Type             X           Y           Z
 ---------------------------------------------------------------------
      1          6           0       -0.760976   -0.324522    0.173240
      2          8           0       -0.993817   -0.750885    1.330000
      3          6           0       -0.727768   -1.314585   -0.992639
      4          1           0       -0.240239   -0.908370   -1.881108
      5          1           0       -0.219298   -2.225281   -0.668808
      6          1           0       -1.771207   -1.558401   -1.239885
      7         17           0        1.901419    0.104701    0.041252
      8          6           0       -0.867854    0.846393   -0.066622
      9          7           0       -1.143322    1.953642   -0.319336
 ---------------------------------------------------------------------

 The electronic state is 1-A.
 Alpha  occ. eigenvalues -- -101.42635 -19.13733 -14.34807 -10.27156 -10.22071
 Alpha  occ. eigenvalues --  -10.17305  -9.34044  -7.09932  -7.09758  -7.09755
 Alpha  occ. eigenvalues --   -1.03264  -0.91249  -0.77754  -0.68599  -0.68095
 Alpha  occ. eigenvalues --   -0.47245  -0.44935  -0.44841  -0.38790  -0.37763
 Alpha  occ. eigenvalues --   -0.37409  -0.32614  -0.31365  -0.25376  -0.22430
 Alpha  occ. eigenvalues --   -0.22212  -0.22136
 Alpha virt. eigenvalues --   -0.07901   0.01743   0.02603   0.04932   0.05939
 Alpha virt. eigenvalues --    0.06980   0.08915   0.09272   0.09459   0.10441
 Alpha virt. eigenvalues --    0.10709   0.12367   0.13460   0.13747   0.14334

 Mulliken charges:
               1
     1  C    0.061643
     2  O   -0.445591
     3  C   -0.597626
     4  H    0.240818
     5  H    0.251624
     6  H    0.242195
     7  Cl  -0.779742
     8  C    0.590117
     9  N   -0.563437
 Sum of Mulliken charges =  -1.00000

 Dipole moment (field-independent basis, Debye):
    X=             -5.6251    Y=             -3.1093    Z=             -3.0002  Tot=              7.0930
 Quadrupole moment (field-independent basis, Debye-Ang):
   XX=            -63.0304   YY=            -53.5767   ZZ=            -49.3521
   XY=              2.4168   XZ=              2.4525   YZ=              4.5478

 Normal termination of Gaussian 16 at Wed Jan  8 01:40:23 2020.
