 Gaussian 16, Revision A.03,
 Gaussian 16:  AS64L-G16RevA.03 25-Dec-2016

 ----------------------------------------------------------------------
 #p opt=modredundant b3lyp/6-31+g(d) scrf=(smd, solvent=tetrahydrofuran
 )
 ----------------------------------------------------------------------

 -----
 title
 -----
 Symbolic Z-matrix:
 Charge = -1 Multiplicity = 1

 SCF Done:  E(RB3LYP) =  -706.408923064     A.U. after   14 cycles
 SCF Done:  E(RB3LYP) =  -706.429072004     A.U. after   13 cycles
 SCF Done:  E(RB3LYP) =  -706.434335912     A.U. after   13 cycles
 SCF Done:  E(RB3LYP) =  -706.434728576     A.U. after   11 cycles
 SCF Done:  E(RB3LYP) =  -706.434777830     A.U. after   10 cycles
 SCF Done:  E(RB3LYP) =  -706.434783915     A.U. after   10 cycles
 SCF Done:  E(RB3LYP) =  -706.434784341     A.U. after    9 cycles
 Optimization completed.
    -- Stationary point found.

                         Standard orientation:
 ---------------------------------------------------------------------
 Center     Atomic      Atomic             Coordinates (Angstroms)
 Number     Number       Type             X           Y           Z
 ---------------------------------------------------------------------
      1          6           0        0.165258    0.670191    0.224653
      2          8           0        0.123885    1.112961    1.356939
      3          6           0       -0.096718    1.465134   -1.032144
      4          1           0       -0.132735    0.833191   -1.920592
      5          1           0       -1.038474    2.010764   -0.923835
      6          1           0        0.722662    2.190638   -1.137149
      7         17           0       -1.488166   -0.908638   -0.027311
      8          6           0        1.383889   -0.480012   -0.061652
      9          7           0        2.291673   -1.203330   -0.170686
 ---------------------------------------------------------------------

 The electronic state is 1-A.
 Alpha  occ. eigenvalues -- -101.44383 -19.12454 -14.32214 -10.30827 -10.21285
 Alpha  occ. eigenvalues --  -10.17436  -9.35902  -7.11887  -7.11554  -7.11539
 Alpha  occ. eigenvalues --   -1.02962  -0.88429  -0.74100  -0.69957  -0.57384
 Alpha  occ. eigenvalues --   -0.46775  -0.42931  -0.42128  -0.38673  -0.35978
 Alpha  occ. eigenvalues --   -0.35523  -0.32211  -0.32162  -0.25451  -0.23983
 Alpha  occ. eigenvalues --   -0.23486  -0.23100
 Alpha virt. eigenvalues --   -0.01108   0.02495   0.03942   0.04431   0.05568
 Alpha virt. eigenvalues --    0.06995   0.07041   0.08677   0.09789   0.10204
 Alpha virt. eigenvalues --    0.10545   0.10797   0.12327   0.13623   0.14032

 Mulliken charges:
               1
     1  C    0.229367
     2  O   -0.385316
     3  C   -0.614721
     4  H    0.242517
     5  H    0.247128
     6  H    0.240142
     7  Cl  -0.602031
     8  C    0.263647
     9  N   -0.620733
 Sum of Mulliken charges =  -1.00000

 Dipole moment (field-independent basis, Debye):
    X=              0.4562    Y=              5.0417    Z=             -2.9760  Tot=              5.8723
 Quadrupole moment (field-independent basis, Debye-Ang):
   XX=            -64.9404   YY=            -52.8723   ZZ=            -49.3855
   XY=              1.8055   XZ=              0.6196   YZ=             -5.2269

 Normal termination of Gaussian 16 at Wed Jan  8 00:58:42 2020.
