 Gaussian 16, Revision A.03,
 Gaussian 16:  AS64L-G16RevA.03 25-Dec-2016

 ----------------------------------------------------------------------
 #p opt=modredundant b3lyp/6-31+g(d) scrf=(smd, solvent=tetrahydrofuran
 )
 ----------------------------------------------------------------------

 -----
 title
 -----
 Symbolic Z-matrix:
 Charge = -1 Multiplicity = 1

 SCF Done:  E(RB3LYP) =  -706.344663417     A.U. after   15 cycles
 SCF Done:  E(RB3LYP) =  -706.381538741     A.U. after   13 cycles
 SCF Done:  E(RB3LYP) =  -706.395766754     A.U. after   13 cycles
 SCF Done:  E(RB3LYP) =  -706.402862526     A.U. after   12 cycles
 SCF Done:  E(RB3LYP) =  -706.404661184     A.U. after   12 cycles
 SCF Done:  E(RB3LYP) =  -706.404927102     A.U. after   11 cycles
 SCF Done:  E(RB3LYP) =  -706.404987708     A.U. after   11 cycles
 SCF Done:  E(RB3LYP) =  -706.405009024     A.U. after   11 cycles
 SCF Done:  E(RB3LYP) =  -706.405026610     A.U. after   10 cycles
 SCF Done:  E(RB3LYP) =  -706.405044655     A.U. after   10 cycles
 SCF Done:  E(RB3LYP) =  -706.405056496     A.U. after    9 cycles
 SCF Done:  E(RB3LYP) =  -706.405058522     A.U. after   10 cycles
 SCF Done:  E(RB3LYP) =  -706.405077633     A.U. after   10 cycles
 SCF Done:  E(RB3LYP) =  -706.405098660     A.U. after   11 cycles
 SCF Done:  E(RB3LYP) =  -706.405101884     A.U. after    9 cycles
 SCF Done:  E(RB3LYP) =  -706.405104364     A.U. after   10 cycles
 SCF Done:  E(RB3LYP) =  -706.405104447     A.U. after    8 cycles
 Optimization completed.
    -- Stationary point found.

                         Standard orientation:
 ---------------------------------------------------------------------
 Center     Atomic      Atomic             Coordinates (Angstroms)
 Number     Number       Type             X           Y           Z
 ---------------------------------------------------------------------
      1          6           0        0.406719    0.927327    0.220963
      2          8           0        0.288465    1.250017    1.323784
      3          6           0        0.164292    1.308432   -1.173688
      4          1           0       -0.049372    0.424181   -1.771568
      5          1           0       -0.673153    2.013195   -1.196497
      6          1           0        1.086167    1.783901   -1.534374
      7         17           0       -2.167881   -0.786108    0.007488
      8          6           0        1.909037   -0.664924    0.002385
      9          7           0        2.757475   -1.468940   -0.073299
 ---------------------------------------------------------------------

 The electronic state is 1-A.
 Alpha  occ. eigenvalues -- -101.41591 -19.24089 -14.30449 -10.37171 -10.21899
 Alpha  occ. eigenvalues --  -10.18432  -9.32925  -7.08735  -7.08692  -7.08687
 Alpha  occ. eigenvalues --   -1.14684  -0.86223  -0.78684  -0.66835  -0.56644
 Alpha  occ. eigenvalues --   -0.50277  -0.49330  -0.48425  -0.41276  -0.41014
 Alpha  occ. eigenvalues --   -0.38091  -0.30665  -0.30608  -0.28701  -0.21573
 Alpha  occ. eigenvalues --   -0.21380  -0.21345
 Alpha virt. eigenvalues --   -0.05247  -0.03461   0.02324   0.04494   0.04657
 Alpha virt. eigenvalues --    0.05534   0.06619   0.07296   0.08709   0.09774
 Alpha virt. eigenvalues --    0.09931   0.10127   0.10706   0.12590   0.13338

 Mulliken charges:
               1
     1  C    0.612889
     2  O   -0.194437
     3  C   -0.709849
     4  H    0.315115
     5  H    0.286516
     6  H    0.295426
     7  Cl  -0.917230
     8  C   -0.075259
     9  N   -0.613172
 Sum of Mulliken charges =  -1.00000

 Dipole moment (field-independent basis, Debye):
    X=              3.2264    Y=              9.8620    Z=             -2.8487  Tot=             10.7603
 Quadrupole moment (field-independent basis, Debye-Ang):
   XX=            -87.7853   YY=            -51.8869   ZZ=            -45.2972
   XY=              3.7613   XZ=              0.0933   YZ=             -4.3267

 Normal termination of Gaussian 16 at Wed Jan  8 02:46:18 2020.
