 Gaussian 16, Revision A.03,
 Gaussian 16:  AS64L-G16RevA.03 25-Dec-2016

 ----------------------------------------------------------------------
 #p opt=modredundant b3lyp/6-31+g(d) scrf=(smd, solvent=tetrahydrofuran
 )
 ----------------------------------------------------------------------

 -----
 title
 -----
 Symbolic Z-matrix:
 Charge = -1 Multiplicity = 1

 SCF Done:  E(RB3LYP) =  -706.337694858     A.U. after   15 cycles
 SCF Done:  E(RB3LYP) =  -706.362371709     A.U. after   13 cycles
 SCF Done:  E(RB3LYP) =  -706.373595149     A.U. after   14 cycles
 SCF Done:  E(RB3LYP) =  -706.374478440     A.U. after   12 cycles
 SCF Done:  E(RB3LYP) =  -706.374553220     A.U. after   12 cycles
 SCF Done:  E(RB3LYP) =  -706.374603455     A.U. after   12 cycles
 SCF Done:  E(RB3LYP) =  -706.374613330     A.U. after   10 cycles
 SCF Done:  E(RB3LYP) =  -706.374613712     A.U. after    9 cycles
 Optimization completed.
    -- Stationary point found.

                         Standard orientation:
 ---------------------------------------------------------------------
 Center     Atomic      Atomic             Coordinates (Angstroms)
 Number     Number       Type             X           Y           Z
 ---------------------------------------------------------------------
      1          6           0        0.565371    0.375279    0.183731
      2          8           0        0.748329    0.831084    1.349883
      3          6           0        0.491873    1.379100   -0.980518
      4          1           0        0.126267    0.932148   -1.907999
      5          1           0       -0.154010    2.209948   -0.688496
      6          1           0        1.510154    1.759297   -1.144747
      7         17           0       -1.728946   -0.308914    0.016429
      8          6           0        0.927358   -0.741675   -0.064021
      9          7           0        1.430776   -1.767819   -0.310324
 ---------------------------------------------------------------------

 The electronic state is 1-A.
 Alpha  occ. eigenvalues -- -101.43991 -19.11624 -14.33651 -10.26286 -10.21347
 Alpha  occ. eigenvalues --  -10.16845  -9.35508  -7.11475  -7.11168  -7.11156
 Alpha  occ. eigenvalues --   -1.01415  -0.90269  -0.77148  -0.69657  -0.67840
 Alpha  occ. eigenvalues --   -0.46256  -0.44314  -0.43631  -0.38107  -0.37018
 Alpha  occ. eigenvalues --   -0.36957  -0.31737  -0.30471  -0.23990  -0.23582
 Alpha  occ. eigenvalues --   -0.23296  -0.22793
 Alpha virt. eigenvalues --   -0.06126   0.02321   0.02779   0.05024   0.05944
 Alpha virt. eigenvalues --    0.07128   0.08811   0.09303   0.09564   0.10474
 Alpha virt. eigenvalues --    0.10683   0.12254   0.13715   0.13907   0.14460

 Mulliken charges:
               1
     1  C   -0.108298
     2  O   -0.475473
     3  C   -0.567879
     4  H    0.232421
     5  H    0.246342
     6  H    0.232384
     7  Cl  -0.631318
     8  C    0.683654
     9  N   -0.611833
 Sum of Mulliken charges =  -1.00000

 Dipole moment (field-independent basis, Debye):
    X=              3.0476    Y=              3.4157    Z=             -3.0674  Tot=              5.5104
 Quadrupole moment (field-independent basis, Debye-Ang):
   XX=            -60.4357   YY=            -53.5059   ZZ=            -49.9773
   XY=              2.4012   XZ=             -1.7533   YZ=             -4.9329

 Normal termination of Gaussian 16 at Wed Jan  8 01:05:28 2020.
