 Gaussian 16, Revision A.03,
 Gaussian 16:  AS64L-G16RevA.03 25-Dec-2016

 ----------------------------------------------------------------------
 #p opt=modredundant b3lyp/6-31+g(d) scrf=(smd, solvent=tetrahydrofuran
 )
 ----------------------------------------------------------------------

 -----
 title
 -----
 Symbolic Z-matrix:
 Charge = -1 Multiplicity = 1

 SCF Done:  E(RB3LYP) =  -706.412033114     A.U. after   14 cycles
 SCF Done:  E(RB3LYP) =  -706.434346983     A.U. after   13 cycles
 SCF Done:  E(RB3LYP) =  -706.442802453     A.U. after   13 cycles
 SCF Done:  E(RB3LYP) =  -706.443423379     A.U. after   12 cycles
 SCF Done:  E(RB3LYP) =  -706.443487618     A.U. after   11 cycles
 SCF Done:  E(RB3LYP) =  -706.443495773     A.U. after   10 cycles
 SCF Done:  E(RB3LYP) =  -706.443496281     A.U. after    9 cycles
 Optimization completed.
    -- Stationary point found.

                         Standard orientation:
 ---------------------------------------------------------------------
 Center     Atomic      Atomic             Coordinates (Angstroms)
 Number     Number       Type             X           Y           Z
 ---------------------------------------------------------------------
      1          6           0        0.334082    0.649004    0.212115
      2          8           0        0.354264    1.102359    1.346402
      3          6           0        0.096788    1.471821   -1.032201
      4          1           0       -0.067140    0.852784   -1.915506
      5          1           0       -0.760763    2.130860   -0.873416
      6          1           0        0.992638    2.090732   -1.189001
      7         17           0       -1.614060   -0.735854   -0.004464
      8          6           0        1.261574   -0.625588   -0.062064
      9          7           0        2.040787   -1.479307   -0.203502
 ---------------------------------------------------------------------

 The electronic state is 1-A.
 Alpha  occ. eigenvalues -- -101.43662 -19.12693 -14.32969 -10.30490 -10.22233
 Alpha  occ. eigenvalues --  -10.17357  -9.35152  -7.11094  -7.10831  -7.10816
 Alpha  occ. eigenvalues --   -1.02985  -0.89280  -0.74076  -0.69320  -0.59927
 Alpha  occ. eigenvalues --   -0.47005  -0.42985  -0.42420  -0.38779  -0.36457
 Alpha  occ. eigenvalues --   -0.35746  -0.32793  -0.32415  -0.25413  -0.23390
 Alpha  occ. eigenvalues --   -0.23014  -0.22744
 Alpha virt. eigenvalues --   -0.02237   0.02536   0.03834   0.04286   0.05676
 Alpha virt. eigenvalues --    0.06990   0.07178   0.08757   0.09723   0.10306
 Alpha virt. eigenvalues --    0.10600   0.11094   0.12640   0.13720   0.14274

 Mulliken charges:
               1
     1  C    0.218010
     2  O   -0.397667
     3  C   -0.622281
     4  H    0.241906
     5  H    0.248851
     6  H    0.240583
     7  Cl  -0.668891
     8  C    0.347542
     9  N   -0.608053
 Sum of Mulliken charges =  -1.00000

 Dipole moment (field-independent basis, Debye):
    X=              2.0347    Y=              4.9743    Z=             -3.0078  Tot=              6.1588
 Quadrupole moment (field-independent basis, Debye-Ang):
   XX=            -63.9269   YY=            -53.7027   ZZ=            -49.3791
   XY=              1.9448   XZ=             -0.1357   YZ=             -5.3139

 Normal termination of Gaussian 16 at Wed Jan  8 01:09:40 2020.
