 Gaussian 16, Revision A.03,
 Gaussian 16:  AS64L-G16RevA.03 25-Dec-2016

 ----------------------------------------------------------------------
 #p opt=modredundant b3lyp/6-31+g(d) scrf=(smd, solvent=tetrahydrofuran
 )
 ----------------------------------------------------------------------

 -----
 title
 -----
 Symbolic Z-matrix:
 Charge = -1 Multiplicity = 1

 SCF Done:  E(RB3LYP) =  -706.375376000     A.U. after   14 cycles
 SCF Done:  E(RB3LYP) =  -706.375377133     A.U. after    9 cycles
 Optimization completed.
    -- Stationary point found.

                         Standard orientation:
 ---------------------------------------------------------------------
 Center     Atomic      Atomic             Coordinates (Angstroms)
 Number     Number       Type             X           Y           Z
 ---------------------------------------------------------------------
      1          6           0       -0.194819    0.291966    0.212729
      2          8           0       -0.253780    0.664397    1.454238
      3          6           0       -0.330644    1.455947   -0.815245
      4          1           0       -0.181819    1.132164   -1.853095
      5          1           0       -1.339983    1.875024   -0.712264
      6          1           0        0.398439    2.234550   -0.569806
      7         17           0       -1.152649   -0.923435   -0.193915
      8          6           0        1.381833   -0.258852   -0.104710
      9          7           0        2.515774   -0.541840   -0.136974
 ---------------------------------------------------------------------

 The electronic state is 1-A.
 Alpha  occ. eigenvalues -- -101.51318 -19.04266 -14.30490 -10.27807 -10.19001
 Alpha  occ. eigenvalues --  -10.15422  -9.43465  -7.19757  -7.18878  -7.18846
 Alpha  occ. eigenvalues --   -0.96389  -0.86691  -0.84117  -0.69385  -0.56196
 Alpha  occ. eigenvalues --   -0.47721  -0.42278  -0.39898  -0.37086  -0.35255
 Alpha  occ. eigenvalues --   -0.34911  -0.31497  -0.30509  -0.28125  -0.27350
 Alpha  occ. eigenvalues --   -0.20151  -0.18914
 Alpha virt. eigenvalues --    0.02362   0.04085   0.04891   0.05773   0.06833
 Alpha virt. eigenvalues --    0.06939   0.07656   0.09254   0.09638   0.10116
 Alpha virt. eigenvalues --    0.10238   0.11241   0.13807   0.14148   0.14799

 Mulliken charges:
               1
     1  C    0.068490
     2  O   -0.615622
     3  C   -0.615883
     4  H    0.210939
     5  H    0.216635
     6  H    0.222440
     7  Cl   0.041233
     8  C    0.154417
     9  N   -0.682649
 Sum of Mulliken charges =  -1.00000

 Dipole moment (field-independent basis, Debye):
    X=             -3.9308    Y=              0.5504    Z=             -4.3503  Tot=              5.8889
 Quadrupole moment (field-independent basis, Debye-Ang):
   XX=            -63.0956   YY=            -47.7930   ZZ=            -53.6442
   XY=              3.4095   XZ=              2.2905   YZ=             -4.0583

 Normal termination of Gaussian 16 at Tue Jan  7 23:00:16 2020.
