 Gaussian 16, Revision A.03,
 Gaussian 16:  AS64L-G16RevA.03 25-Dec-2016

 ----------------------------------------------------------------------
 #p opt=modredundant b3lyp/6-31+g(d) scrf=(smd, solvent=tetrahydrofuran
 )
 ----------------------------------------------------------------------

 -----
 title
 -----
 Symbolic Z-matrix:
 Charge = -1 Multiplicity = 1

 SCF Done:  E(RB3LYP) =  -706.397557408     A.U. after   14 cycles
 SCF Done:  E(RB3LYP) =  -706.411280954     A.U. after   12 cycles
 SCF Done:  E(RB3LYP) =  -706.412780210     A.U. after   12 cycles
 SCF Done:  E(RB3LYP) =  -706.412930615     A.U. after   11 cycles
 SCF Done:  E(RB3LYP) =  -706.412952424     A.U. after   10 cycles
 SCF Done:  E(RB3LYP) =  -706.412969806     A.U. after   11 cycles
 SCF Done:  E(RB3LYP) =  -706.412971925     A.U. after    9 cycles
 SCF Done:  E(RB3LYP) =  -706.412974072     A.U. after   10 cycles
 SCF Done:  E(RB3LYP) =  -706.412974484     A.U. after    9 cycles
 SCF Done:  E(RB3LYP) =  -706.412974409     A.U. after    8 cycles
 Optimization completed.
    -- Stationary point found.

                         Standard orientation:
 ---------------------------------------------------------------------
 Center     Atomic      Atomic             Coordinates (Angstroms)
 Number     Number       Type             X           Y           Z
 ---------------------------------------------------------------------
      1          6           0       -0.200126    0.575805    0.247328
      2          8           0       -0.287330    0.978975    1.384425
      3          6           0       -0.329637    1.426228   -0.997183
      4          1           0       -0.127499    0.856746   -1.905061
      5          1           0       -1.349367    1.828758   -1.033780
      6          1           0        0.379176    2.257984   -0.916196
      7         17           0       -1.275144   -1.073306   -0.105898
      8          6           0        1.589905   -0.262052   -0.058914
      9          7           0        2.673275   -0.709853   -0.081068
 ---------------------------------------------------------------------

 The electronic state is 1-A.
 Alpha  occ. eigenvalues -- -101.48067 -19.12196 -14.29221 -10.31022 -10.17484
 Alpha  occ. eigenvalues --  -10.16966  -9.39697  -7.15870  -7.15234  -7.15220
 Alpha  occ. eigenvalues --   -1.03098  -0.85159  -0.76934  -0.71500  -0.52705
 Alpha  occ. eigenvalues --   -0.45562  -0.43533  -0.41920  -0.37728  -0.36457
 Alpha  occ. eigenvalues --   -0.34526  -0.30080  -0.29496  -0.26802  -0.26547
 Alpha  occ. eigenvalues --   -0.24643  -0.24157
 Alpha virt. eigenvalues --    0.00154   0.02525   0.04025   0.05388   0.05889
 Alpha virt. eigenvalues --    0.07069   0.07644   0.08222   0.09301   0.10032
 Alpha virt. eigenvalues --    0.10467   0.10509   0.11813   0.13218   0.13814

 Mulliken charges:
               1
     1  C    0.139273
     2  O   -0.352567
     3  C   -0.568532
     4  H    0.243314
     5  H    0.239697
     6  H    0.241733
     7  Cl  -0.293104
     8  C    0.022502
     9  N   -0.672316
 Sum of Mulliken charges =  -1.00000

 Dipole moment (field-independent basis, Debye):
    X=             -4.1965    Y=              3.8573    Z=             -2.9122  Tot=              6.4008
 Quadrupole moment (field-independent basis, Debye-Ang):
   XX=            -69.4647   YY=            -49.5573   ZZ=            -49.4720
   XY=              2.8059   XZ=              1.6148   YZ=             -4.4889

 Normal termination of Gaussian 16 at Wed Jan  8 00:24:43 2020.
