 Gaussian 16, Revision A.03,
 Gaussian 16:  AS64L-G16RevA.03 25-Dec-2016

 ----------------------------------------------------------------------
 #p opt=modredundant b3lyp/6-31+g(d) scrf=(smd, solvent=tetrahydrofuran
 )
 ----------------------------------------------------------------------

 -----
 title
 -----
 Symbolic Z-matrix:
 Charge = -1 Multiplicity = 1

 SCF Done:  E(RB3LYP) =  -706.321643692     A.U. after   16 cycles
 SCF Done:  E(RB3LYP) =  -706.362742137     A.U. after   13 cycles
 SCF Done:  E(RB3LYP) =  -706.378161828     A.U. after   12 cycles
 SCF Done:  E(RB3LYP) =  -706.386636541     A.U. after   12 cycles
 SCF Done:  E(RB3LYP) =  -706.389317443     A.U. after   11 cycles
 SCF Done:  E(RB3LYP) =  -706.389527932     A.U. after   11 cycles
 SCF Done:  E(RB3LYP) =  -706.389466129     A.U. after   11 cycles
 SCF Done:  E(RB3LYP) =  -706.389849490     A.U. after   10 cycles
 SCF Done:  E(RB3LYP) =  -706.390042434     A.U. after   10 cycles
 SCF Done:  E(RB3LYP) =  -706.390119602     A.U. after   10 cycles
 SCF Done:  E(RB3LYP) =  -706.390242194     A.U. after    9 cycles
 SCF Done:  E(RB3LYP) =  -706.390242153     A.U. after    7 cycles
 SCF Done:  E(RB3LYP) =  -706.390246927     A.U. after    9 cycles
 SCF Done:  E(RB3LYP) =  -706.390250052     A.U. after    8 cycles
 SCF Done:  E(RB3LYP) =  -706.390251687     A.U. after    9 cycles
 SCF Done:  E(RB3LYP) =  -706.390241565     A.U. after   10 cycles
 SCF Done:  E(RB3LYP) =  -706.390230514     A.U. after    9 cycles
 SCF Done:  E(RB3LYP) =  -706.390240561     A.U. after    9 cycles
 SCF Done:  E(RB3LYP) =  -706.390244562     A.U. after    8 cycles
 SCF Done:  E(RB3LYP) =  -706.390242691     A.U. after    8 cycles
 Optimization completed on the basis of negligible forces.
    -- Stationary point found.

                         Standard orientation:
 ---------------------------------------------------------------------
 Center     Atomic      Atomic             Coordinates (Angstroms)
 Number     Number       Type             X           Y           Z
 ---------------------------------------------------------------------
      1          6           0       -0.013790    0.829326    0.266338
      2          8           0        0.032694    0.899864    1.398129
      3          6           0        0.023599    1.109236   -1.146663
      4          1           0        0.075696    0.173087   -1.704459
      5          1           0       -0.895492    1.652858   -1.395231
      6          1           0        0.919488    1.717290   -1.326083
      7         17           0       -2.422524   -0.754594   -0.048618
      8          6           0        2.548873   -0.492359   -0.043350
      9          7           0        3.638512   -0.941610   -0.055816
 ---------------------------------------------------------------------

 The electronic state is 1-A.
 Alpha  occ. eigenvalues -- -101.43333 -19.29436 -14.26950 -10.40490 -10.24456
 Alpha  occ. eigenvalues --  -10.13551  -9.34669  -7.10545  -7.10405  -7.10394
 Alpha  occ. eigenvalues --   -1.19980  -0.82570  -0.82089  -0.68553  -0.59483
 Alpha  occ. eigenvalues --   -0.52661  -0.52377  -0.51920  -0.44040  -0.43757
 Alpha  occ. eigenvalues --   -0.36090  -0.27504  -0.27487  -0.24670  -0.23444
 Alpha  occ. eigenvalues --   -0.22848  -0.22792
 Alpha virt. eigenvalues --   -0.07377  -0.06051   0.01838   0.04492   0.04744
 Alpha virt. eigenvalues --    0.04924   0.07036   0.07634   0.08493   0.09548
 Alpha virt. eigenvalues --    0.09868   0.10969   0.11256   0.12339   0.12971

 Mulliken charges:
               1
     1  C    0.771629
     2  O   -0.184435
     3  C   -0.730885
     4  H    0.353603
     5  H    0.323431
     6  H    0.321508
     7  Cl  -0.848771
     8  C   -0.351559
     9  N   -0.654520
 Sum of Mulliken charges =  -1.00000

 Dipole moment (field-independent basis, Debye):
    X=             -3.7170    Y=             10.0284    Z=             -2.4197  Tot=             10.9654
 Quadrupole moment (field-independent basis, Debye-Ang):
   XX=           -117.4410   YY=            -47.3928   ZZ=            -43.8937
   XY=              3.9786   XZ=              0.2091   YZ=             -3.3955

 Normal termination of Gaussian 16 at Wed Jan  8 02:45:48 2020.
