 Gaussian 16, Revision A.03,
 Gaussian 16:  AS64L-G16RevA.03 25-Dec-2016

 ----------------------------------------------------------------------
 #p opt=modredundant b3lyp/6-31+g(d) scrf=(smd, solvent=tetrahydrofuran
 )
 ----------------------------------------------------------------------

 -----
 title
 -----
 Symbolic Z-matrix:
 Charge = -1 Multiplicity = 1

 SCF Done:  E(RB3LYP) =  -706.332941268     A.U. after   14 cycles
 SCF Done:  E(RB3LYP) =  -706.349282400     A.U. after   12 cycles
 SCF Done:  E(RB3LYP) =  -706.350734922     A.U. after   12 cycles
 SCF Done:  E(RB3LYP) =  -706.350888299     A.U. after   11 cycles
 SCF Done:  E(RB3LYP) =  -706.350923590     A.U. after   11 cycles
 SCF Done:  E(RB3LYP) =  -706.351012283     A.U. after   12 cycles
 SCF Done:  E(RB3LYP) =  -706.351038478     A.U. after   10 cycles
 SCF Done:  E(RB3LYP) =  -706.351058520     A.U. after   10 cycles
 SCF Done:  E(RB3LYP) =  -706.351055662     A.U. after   11 cycles
 SCF Done:  E(RB3LYP) =  -706.351059819     A.U. after   11 cycles
 SCF Done:  E(RB3LYP) =  -706.351059754     A.U. after    9 cycles
 SCF Done:  E(RB3LYP) =  -706.351060216     A.U. after    9 cycles
 SCF Done:  E(RB3LYP) =  -706.351061077     A.U. after    9 cycles
 SCF Done:  E(RB3LYP) =  -706.351061284     A.U. after    8 cycles
 Optimization completed.
    -- Stationary point found.

                         Standard orientation:
 ---------------------------------------------------------------------
 Center     Atomic      Atomic             Coordinates (Angstroms)
 Number     Number       Type             X           Y           Z
 ---------------------------------------------------------------------
      1          6           0       -0.496869    0.300347    0.238677
      2          8           0       -0.389990    0.558676    1.448552
      3          6           0       -0.469973    1.465102   -0.757597
      4          1           0       -0.230478    1.145295   -1.774441
      5          1           0       -1.474637    1.915947   -0.757091
      6          1           0        0.250325    2.214132   -0.424294
      7         17           0       -1.154374   -0.963452   -0.230898
      8          6           0        1.687306   -0.237028   -0.241539
      9          7           0        2.839469   -0.362376   -0.020653
 ---------------------------------------------------------------------

 The electronic state is 1-A.
 Alpha  occ. eigenvalues -- -101.54333 -19.10281 -14.26174 -10.29153 -10.16393
 Alpha  occ. eigenvalues --  -10.12565  -9.46708  -7.22988  -7.22150  -7.22005
 Alpha  occ. eigenvalues --   -1.02645  -0.89746  -0.81851  -0.70744  -0.54541
 Alpha  occ. eigenvalues --   -0.45797  -0.45234  -0.43220  -0.37513  -0.36580
 Alpha  occ. eigenvalues --   -0.34627  -0.30002  -0.29459  -0.26750  -0.26257
 Alpha  occ. eigenvalues --   -0.23699  -0.22407
 Alpha virt. eigenvalues --   -0.00396   0.03117   0.04995   0.05966   0.06404
 Alpha virt. eigenvalues --    0.07542   0.08676   0.09305   0.09487   0.09583
 Alpha virt. eigenvalues --    0.10767   0.11202   0.12468   0.13695   0.13995

 Mulliken charges:
               1
     1  C   -0.442433
     2  O   -0.397569
     3  C   -0.365373
     4  H    0.230812
     5  H    0.223109
     6  H    0.241260
     7  Cl   0.370787
     8  C   -0.181648
     9  N   -0.678945
 Sum of Mulliken charges =  -1.00000

 Dipole moment (field-independent basis, Debye):
    X=             -9.4520    Y=              1.2479    Z=             -3.1089  Tot=             10.0281
 Quadrupole moment (field-independent basis, Debye-Ang):
   XX=            -73.2032   YY=            -45.0586   ZZ=            -51.2494
   XY=              3.6590   XZ=              2.1344   YZ=             -2.4946

 Normal termination of Gaussian 16 at Tue Jan  7 22:55:28 2020.
