 Gaussian 16, Revision A.03,
 Gaussian 16:  AS64L-G16RevA.03 25-Dec-2016

 ----------------------------------------------------------------------
 #p opt=modredundant b3lyp/6-31+g(d) scrf=(smd, solvent=tetrahydrofuran
 )
 ----------------------------------------------------------------------

 -----
 title
 -----
 Symbolic Z-matrix:
 Charge = -1 Multiplicity = 1

 SCF Done:  E(RB3LYP) =  -706.332156017     A.U. after   15 cycles
 SCF Done:  E(RB3LYP) =  -706.371376250     A.U. after   13 cycles
 SCF Done:  E(RB3LYP) =  -706.384779105     A.U. after   12 cycles
 SCF Done:  E(RB3LYP) =  -706.391210413     A.U. after   12 cycles
 SCF Done:  E(RB3LYP) =  -706.392621769     A.U. after   11 cycles
 SCF Done:  E(RB3LYP) =  -706.392684552     A.U. after   11 cycles
 SCF Done:  E(RB3LYP) =  -706.392718620     A.U. after   10 cycles
 SCF Done:  E(RB3LYP) =  -706.392764519     A.U. after   10 cycles
 SCF Done:  E(RB3LYP) =  -706.392808064     A.U. after   10 cycles
 SCF Done:  E(RB3LYP) =  -706.392847833     A.U. after   10 cycles
 SCF Done:  E(RB3LYP) =  -706.392864005     A.U. after   10 cycles
 SCF Done:  E(RB3LYP) =  -706.392872121     A.U. after   10 cycles
 SCF Done:  E(RB3LYP) =  -706.392874315     A.U. after    9 cycles
 SCF Done:  E(RB3LYP) =  -706.392876324     A.U. after    9 cycles
 SCF Done:  E(RB3LYP) =  -706.392877104     A.U. after    8 cycles
 Optimization completed.
    -- Stationary point found.

                         Standard orientation:
 ---------------------------------------------------------------------
 Center     Atomic      Atomic             Coordinates (Angstroms)
 Number     Number       Type             X           Y           Z
 ---------------------------------------------------------------------
      1          6           0       -0.019156    0.930644    0.231652
      2          8           0       -0.026142    1.154455    1.350411
      3          6           0        0.000096    1.223140   -1.190143
      4          1           0        0.062295    0.304342   -1.769114
      5          1           0       -0.929285    1.761033   -1.415361
      6          1           0        0.879383    1.855671   -1.367728
      7         17           0       -2.123168   -0.899263   -0.022466
      8          6           0        2.247153   -0.521449    0.018882
      9          7           0        3.274576   -1.094746   -0.033072
 ---------------------------------------------------------------------

 The electronic state is 1-A.
 Alpha  occ. eigenvalues -- -101.43566 -19.27509 -14.27324 -10.39242 -10.23575
 Alpha  occ. eigenvalues --  -10.14120  -9.34906  -7.10806  -7.10627  -7.10617
 Alpha  occ. eigenvalues --   -1.18071  -0.82961  -0.80761  -0.68790  -0.58273
 Alpha  occ. eigenvalues --   -0.51466  -0.51061  -0.50474  -0.43021  -0.42739
 Alpha  occ. eigenvalues --   -0.36338  -0.27831  -0.27812  -0.25184  -0.23640
 Alpha  occ. eigenvalues --   -0.22966  -0.22928
 Alpha virt. eigenvalues --   -0.07049  -0.04714   0.02125   0.04661   0.04916
 Alpha virt. eigenvalues --    0.05118   0.07343   0.07677   0.08602   0.09654
 Alpha virt. eigenvalues --    0.09868   0.10893   0.11195   0.12457   0.13234

 Mulliken charges:
               1
     1  C    0.561051
     2  O   -0.147592
     3  C   -0.648780
     4  H    0.338742
     5  H    0.310475
     6  H    0.310702
     7  Cl  -0.803711
     8  C   -0.266919
     9  N   -0.653968
 Sum of Mulliken charges =  -1.00000

 Dipole moment (field-independent basis, Debye):
    X=             -3.2499    Y=             10.6249    Z=             -2.8249  Tot=             11.4643
 Quadrupole moment (field-independent basis, Debye-Ang):
   XX=           -100.6240   YY=            -49.0156   ZZ=            -44.1094
   XY=              3.9673   XZ=              0.1438   YZ=             -3.8607

 Normal termination of Gaussian 16 at Wed Jan  8 02:05:53 2020.
