 Gaussian 16, Revision A.03,
 Gaussian 16:  AS64L-G16RevA.03 25-Dec-2016

 ----------------------------------------------------------------------
 #p opt=modredundant b3lyp/6-31+g(d) scrf=(smd, solvent=tetrahydrofuran
 )
 ----------------------------------------------------------------------

 -----
 title
 -----
 Symbolic Z-matrix:
 Charge = -1 Multiplicity = 1

 SCF Done:  E(RB3LYP) =  -706.336392975     A.U. after   14 cycles
 SCF Done:  E(RB3LYP) =  -706.374484541     A.U. after   13 cycles
 SCF Done:  E(RB3LYP) =  -706.388252966     A.U. after   13 cycles
 SCF Done:  E(RB3LYP) =  -706.395151985     A.U. after   12 cycles
 SCF Done:  E(RB3LYP) =  -706.396661013     A.U. after   11 cycles
 SCF Done:  E(RB3LYP) =  -706.397012992     A.U. after   11 cycles
 SCF Done:  E(RB3LYP) =  -706.397048687     A.U. after   11 cycles
 SCF Done:  E(RB3LYP) =  -706.397099079     A.U. after   10 cycles
 SCF Done:  E(RB3LYP) =  -706.397134915     A.U. after   10 cycles
 SCF Done:  E(RB3LYP) =  -706.397151380     A.U. after   10 cycles
 SCF Done:  E(RB3LYP) =  -706.397155980     A.U. after    9 cycles
 SCF Done:  E(RB3LYP) =  -706.397156942     A.U. after    8 cycles
 SCF Done:  E(RB3LYP) =  -706.397157394     A.U. after    9 cycles
 SCF Done:  E(RB3LYP) =  -706.397157571     A.U. after    8 cycles
 Optimization completed.
    -- Stationary point found.

                         Standard orientation:
 ---------------------------------------------------------------------
 Center     Atomic      Atomic             Coordinates (Angstroms)
 Number     Number       Type             X           Y           Z
 ---------------------------------------------------------------------
      1          6           0        0.236743    0.968514    0.227588
      2          8           0        0.129348    1.239478    1.336635
      3          6           0        0.093283    1.295560   -1.186453
      4          1           0        0.006225    0.386996   -1.778300
      5          1           0       -0.799170    1.923526   -1.290191
      6          1           0        0.999186    1.846520   -1.471835
      7         17           0       -2.125932   -0.865171   -0.007703
      8          6           0        2.040840   -0.599806    0.014027
      9          7           0        2.953518   -1.335794   -0.050395
 ---------------------------------------------------------------------

 The electronic state is 1-A.
 Alpha  occ. eigenvalues -- -101.42102 -19.26024 -14.29016 -10.38345 -10.22857
 Alpha  occ. eigenvalues --  -10.16487  -9.33438  -7.09271  -7.09193  -7.09187
 Alpha  occ. eigenvalues --   -1.16605  -0.84727  -0.79810  -0.67350  -0.57476
 Alpha  occ. eigenvalues --   -0.50667  -0.50391  -0.49616  -0.42216  -0.41947
 Alpha  occ. eigenvalues --   -0.37529  -0.29358  -0.29326  -0.27221  -0.22135
 Alpha  occ. eigenvalues --   -0.21794  -0.21763
 Alpha virt. eigenvalues --   -0.06343  -0.04168   0.02204   0.04685   0.04730
 Alpha virt. eigenvalues --    0.05326   0.06925   0.07489   0.08619   0.09723
 Alpha virt. eigenvalues --    0.09939   0.10408   0.10862   0.12540   0.13328

 Mulliken charges:
               1
     1  C    0.567680
     2  O   -0.158685
     3  C   -0.662166
     4  H    0.327520
     5  H    0.298153
     6  H    0.305268
     7  Cl  -0.884873
     8  C   -0.160941
     9  N   -0.631957
 Sum of Mulliken charges =  -1.00000

 Dipole moment (field-independent basis, Debye):
    X=              0.7901    Y=             10.7849    Z=             -2.8177  Tot=             11.1749
 Quadrupole moment (field-independent basis, Debye-Ang):
   XX=            -92.3537   YY=            -50.8217   ZZ=            -44.6231
   XY=              3.9232   XZ=              0.0934   YZ=             -4.1808

 Normal termination of Gaussian 16 at Wed Jan  8 02:29:11 2020.
