 Gaussian 16, Revision A.03,
 Gaussian 16:  AS64L-G16RevA.03 25-Dec-2016

 ----------------------------------------------------------------------
 #p opt=modredundant b3lyp/6-31+g(d) scrf=(smd, solvent=tetrahydrofuran
 )
 ----------------------------------------------------------------------

 -----
 title
 -----
 Symbolic Z-matrix:
 Charge = -1 Multiplicity = 1

 SCF Done:  E(RB3LYP) =  -706.377313598     A.U. after   14 cycles
 SCF Done:  E(RB3LYP) =  -706.409943619     A.U. after   13 cycles
 SCF Done:  E(RB3LYP) =  -706.428290795     A.U. after   13 cycles
 SCF Done:  E(RB3LYP) =  -706.433457655     A.U. after   12 cycles
 SCF Done:  E(RB3LYP) =  -706.434115055     A.U. after   11 cycles
 SCF Done:  E(RB3LYP) =  -706.434161392     A.U. after   11 cycles
 SCF Done:  E(RB3LYP) =  -706.434302856     A.U. after   10 cycles
 SCF Done:  E(RB3LYP) =  -706.434312545     A.U. after   10 cycles
 SCF Done:  E(RB3LYP) =  -706.434319111     A.U. after   10 cycles
 SCF Done:  E(RB3LYP) =  -706.434320476     A.U. after   10 cycles
 SCF Done:  E(RB3LYP) =  -706.434321485     A.U. after    9 cycles
 SCF Done:  E(RB3LYP) =  -706.434321613     A.U. after    8 cycles
 Optimization completed.
    -- Stationary point found.

                         Standard orientation:
 ---------------------------------------------------------------------
 Center     Atomic      Atomic             Coordinates (Angstroms)
 Number     Number       Type             X           Y           Z
 ---------------------------------------------------------------------
      1          6           0       -0.737690   -0.751339    0.203196
      2          8           0       -0.774833   -1.158577    1.315628
      3          6           0       -0.484875   -1.410560   -1.102182
      4          1           0        0.070534   -0.745902   -1.764307
      5          1           0        0.061279   -2.343719   -0.941538
      6          1           0       -1.464397   -1.625882   -1.553327
      7         17           0        2.114959    0.450241    0.034093
      8          6           0       -1.356251    0.919581   -0.052557
      9          7           0       -1.850021    1.969133   -0.162312
 ---------------------------------------------------------------------

 The electronic state is 1-A.
 Alpha  occ. eigenvalues -- -101.41315 -19.18883 -14.33270 -10.34150 -10.22246
 Alpha  occ. eigenvalues --  -10.19492  -9.32650  -7.08455  -7.08419  -7.08415
 Alpha  occ. eigenvalues --   -1.09326  -0.89249  -0.76188  -0.66563  -0.57830
 Alpha  occ. eigenvalues --   -0.49998  -0.46198  -0.45502  -0.40437  -0.38252
 Alpha  occ. eigenvalues --   -0.37452  -0.33218  -0.33098  -0.29303  -0.21219
 Alpha  occ. eigenvalues --   -0.21105  -0.21091
 Alpha virt. eigenvalues --   -0.04333   0.01411   0.02714   0.03466   0.05147
 Alpha virt. eigenvalues --    0.06497   0.06597   0.07901   0.09162   0.09554
 Alpha virt. eigenvalues --    0.10073   0.10477   0.10656   0.13002   0.13342

 Mulliken charges:
               1
     1  C    0.542349
     2  O   -0.304918
     3  C   -0.738324
     4  H    0.281833
     5  H    0.261010
     6  H    0.271830
     7  Cl  -0.924250
     8  C    0.179038
     9  N   -0.568569
 Sum of Mulliken charges =  -1.00000

 Dipole moment (field-independent basis, Debye):
    X=             -6.9284    Y=             -6.8140    Z=             -2.9563  Tot=             10.1574
 Quadrupole moment (field-independent basis, Debye-Ang):
   XX=            -73.0355   YY=            -54.8830   ZZ=            -47.3088
   XY=              3.6879   XZ=              1.0608   YZ=              4.9897

 Normal termination of Gaussian 16 at Wed Jan  8 02:37:38 2020.
