 Gaussian 16, Revision A.03,
 Gaussian 16:  AS64L-G16RevA.03 25-Dec-2016

 ----------------------------------------------------------------------
 #p opt=modredundant b3lyp/6-31+g(d) scrf=(smd, solvent=tetrahydrofuran
 )
 ----------------------------------------------------------------------

 -----
 title
 -----
 Symbolic Z-matrix:
 Charge = -1 Multiplicity = 1

 SCF Done:  E(RB3LYP) =  -706.403466137     A.U. after   14 cycles
 SCF Done:  E(RB3LYP) =  -706.432290099     A.U. after   13 cycles
 SCF Done:  E(RB3LYP) =  -706.451154796     A.U. after   13 cycles
 SCF Done:  E(RB3LYP) =  -706.452853427     A.U. after   12 cycles
 SCF Done:  E(RB3LYP) =  -706.453070331     A.U. after   11 cycles
 SCF Done:  E(RB3LYP) =  -706.453136263     A.U. after   11 cycles
 SCF Done:  E(RB3LYP) =  -706.453131871     A.U. after   11 cycles
 SCF Done:  E(RB3LYP) =  -706.453222019     A.U. after   11 cycles
 SCF Done:  E(RB3LYP) =  -706.453227346     A.U. after   10 cycles
 SCF Done:  E(RB3LYP) =  -706.453225463     A.U. after   10 cycles
 SCF Done:  E(RB3LYP) =  -706.453226980     A.U. after    9 cycles
 SCF Done:  E(RB3LYP) =  -706.453227585     A.U. after    9 cycles
 SCF Done:  E(RB3LYP) =  -706.453227450     A.U. after   10 cycles
 Optimization completed.
    -- Stationary point found.

                         Standard orientation:
 ---------------------------------------------------------------------
 Center     Atomic      Atomic             Coordinates (Angstroms)
 Number     Number       Type             X           Y           Z
 ---------------------------------------------------------------------
      1          6           0       -0.753089   -0.513841    0.187469
      2          8           0       -0.930913   -0.923758    1.322414
      3          6           0       -0.637972   -1.386889   -1.032465
      4          1           0       -0.129671   -0.881310   -1.854730
      5          1           0       -0.112885   -2.309685   -0.773985
      6          1           0       -1.660780   -1.640364   -1.350465
      7         17           0        1.945626    0.217852    0.040629
      8          6           0       -0.992969    0.943300   -0.075584
      9          7           0       -1.345832    2.037504   -0.252478
 ---------------------------------------------------------------------

 The electronic state is 1-A.
 Alpha  occ. eigenvalues -- -101.42097 -19.15009 -14.34277 -10.30875 -10.23345
 Alpha  occ. eigenvalues --  -10.17827  -9.33475  -7.09327  -7.09214  -7.09208
 Alpha  occ. eigenvalues --   -1.04972  -0.90572  -0.74964  -0.67530  -0.63432
 Alpha  occ. eigenvalues --   -0.48259  -0.44118  -0.43892  -0.39419  -0.37464
 Alpha  occ. eigenvalues --   -0.36727  -0.33744  -0.33170  -0.26776  -0.21975
 Alpha  occ. eigenvalues --   -0.21754  -0.21742
 Alpha virt. eigenvalues --   -0.05114   0.02400   0.02890   0.04406   0.05756
 Alpha virt. eigenvalues --    0.06814   0.07641   0.08780   0.09526   0.10335
 Alpha virt. eigenvalues --    0.10639   0.11078   0.12698   0.13577   0.14020

 Mulliken charges:
               1
     1  C    0.302743
     2  O   -0.385864
     3  C   -0.663372
     4  H    0.252131
     5  H    0.253912
     6  H    0.252237
     7  Cl  -0.838529
     8  C    0.388607
     9  N   -0.561866
 Sum of Mulliken charges =  -1.00000

 Dipole moment (field-independent basis, Debye):
    X=             -6.1747    Y=             -4.2698    Z=             -3.0178  Tot=              8.0910
 Quadrupole moment (field-independent basis, Debye-Ang):
   XX=            -65.4612   YY=            -54.7908   ZZ=            -48.8195
   XY=              2.8589   XZ=              2.0055   YZ=              4.9079

 Normal termination of Gaussian 16 at Wed Jan  8 02:56:57 2020.
