 Gaussian 16, Revision A.03,
 Gaussian 16:  AS64L-G16RevA.03 25-Dec-2016

 ----------------------------------------------------------------------
 #p opt=modredundant b3lyp/6-31+g(d) scrf=(smd, solvent=tetrahydrofuran
 )
 ----------------------------------------------------------------------

 -----
 title
 -----
 Symbolic Z-matrix:
 Charge = -1 Multiplicity = 1

 SCF Done:  E(RB3LYP) =  -706.390854805     A.U. after   14 cycles
 SCF Done:  E(RB3LYP) =  -706.421114262     A.U. after   13 cycles
 SCF Done:  E(RB3LYP) =  -706.438834371     A.U. after   13 cycles
 SCF Done:  E(RB3LYP) =  -706.441991002     A.U. after   12 cycles
 SCF Done:  E(RB3LYP) =  -706.442357022     A.U. after   11 cycles
 SCF Done:  E(RB3LYP) =  -706.442404976     A.U. after   11 cycles
 SCF Done:  E(RB3LYP) =  -706.442429842     A.U. after   10 cycles
 SCF Done:  E(RB3LYP) =  -706.442443485     A.U. after   10 cycles
 SCF Done:  E(RB3LYP) =  -706.442449430     A.U. after    9 cycles
 SCF Done:  E(RB3LYP) =  -706.442450256     A.U. after    9 cycles
 SCF Done:  E(RB3LYP) =  -706.442446847     A.U. after    9 cycles
 SCF Done:  E(RB3LYP) =  -706.442443556     A.U. after    9 cycles
 Optimization completed.
    -- Stationary point found.

                         Standard orientation:
 ---------------------------------------------------------------------
 Center     Atomic      Atomic             Coordinates (Angstroms)
 Number     Number       Type             X           Y           Z
 ---------------------------------------------------------------------
      1          6           0        0.678768    0.688628    0.201976
      2          8           0        0.745298    1.100542    1.323939
      3          6           0        0.454611    1.432118   -1.072141
      4          1           0       -0.003884    0.795303   -1.828560
      5          1           0       -0.168462    2.309297   -0.880377
      6          1           0        1.440746    1.761423   -1.432836
      7         17           0       -1.986023   -0.442492    0.030341
      8          6           0        1.242755   -0.892643   -0.065421
      9          7           0        1.753543   -1.930943   -0.193146
 ---------------------------------------------------------------------

 The electronic state is 1-A.
 Alpha  occ. eigenvalues -- -101.41681 -19.17005 -14.33577 -10.32928 -10.22727
 Alpha  occ. eigenvalues --  -10.18722  -9.33038  -7.08866  -7.08793  -7.08786
 Alpha  occ. eigenvalues --   -1.07348  -0.89664  -0.75354  -0.67025  -0.59166
 Alpha  occ. eigenvalues --   -0.49197  -0.45056  -0.44563  -0.39965  -0.37298
 Alpha  occ. eigenvalues --   -0.37211  -0.33433  -0.33314  -0.28270  -0.21594
 Alpha  occ. eigenvalues --   -0.21420  -0.21399
 Alpha virt. eigenvalues --   -0.04147   0.02198   0.03338   0.03389   0.05419
 Alpha virt. eigenvalues --    0.06662   0.06849   0.08543   0.09563   0.09908
 Alpha virt. eigenvalues --    0.10536   0.10630   0.11114   0.13259   0.13532

 Mulliken charges:
               1
     1  C    0.428308
     2  O   -0.331313
     3  C   -0.696454
     4  H    0.267025
     5  H    0.258701
     6  H    0.262643
     7  Cl  -0.879557
     8  C    0.256918
     9  N   -0.566271
 Sum of Mulliken charges =  -1.00000

 Dipole moment (field-independent basis, Debye):
    X=              6.0846    Y=              6.0147    Z=             -2.9382  Tot=              9.0461
 Quadrupole moment (field-independent basis, Debye-Ang):
   XX=            -69.2653   YY=            -54.6766   ZZ=            -48.0115
   XY=              3.0409   XZ=             -1.1174   YZ=             -5.0651

 Normal termination of Gaussian 16 at Wed Jan  8 02:14:44 2020.
