 Gaussian 16, Revision A.03,
 Gaussian 16:  AS64L-G16RevA.03 25-Dec-2016

 ----------------------------------------------------------------------
 #p opt=modredundant b3lyp/6-31+g(d) scrf=(smd, solvent=tetrahydrofuran
 )
 ----------------------------------------------------------------------

 -----
 title
 -----
 Symbolic Z-matrix:
 Charge = -1 Multiplicity = 1

 SCF Done:  E(RB3LYP) =  -706.386114423     A.U. after   14 cycles
 SCF Done:  E(RB3LYP) =  -706.418021346     A.U. after   13 cycles
 SCF Done:  E(RB3LYP) =  -706.438292083     A.U. after   13 cycles
 SCF Done:  E(RB3LYP) =  -706.442429541     A.U. after   12 cycles
 SCF Done:  E(RB3LYP) =  -706.442946939     A.U. after   11 cycles
 SCF Done:  E(RB3LYP) =  -706.443081469     A.U. after   11 cycles
 SCF Done:  E(RB3LYP) =  -706.443119999     A.U. after   11 cycles
 SCF Done:  E(RB3LYP) =  -706.443122203     A.U. after    9 cycles
 SCF Done:  E(RB3LYP) =  -706.443119896     A.U. after   10 cycles
 SCF Done:  E(RB3LYP) =  -706.443118200     A.U. after    9 cycles
 SCF Done:  E(RB3LYP) =  -706.443122165     A.U. after    9 cycles
 SCF Done:  E(RB3LYP) =  -706.443120167     A.U. after   10 cycles
 SCF Done:  E(RB3LYP) =  -706.443120526     A.U. after    8 cycles
 SCF Done:  E(RB3LYP) =  -706.443121955     A.U. after   10 cycles
 SCF Done:  E(RB3LYP) =  -706.443122247     A.U. after    9 cycles
 SCF Done:  E(RB3LYP) =  -706.443120551     A.U. after   10 cycles
 SCF Done:  E(RB3LYP) =  -706.443120368     A.U. after    7 cycles
 SCF Done:  E(RB3LYP) =  -706.443121752     A.U. after   10 cycles
 SCF Done:  E(RB3LYP) =  -706.443122167     A.U. after    9 cycles
 SCF Done:  E(RB3LYP) =  -706.443120340     A.U. after   10 cycles
 Optimization completed.
    -- Stationary point found.

                         Standard orientation:
 ---------------------------------------------------------------------
 Center     Atomic      Atomic             Coordinates (Angstroms)
 Number     Number       Type             X           Y           Z
 ---------------------------------------------------------------------
      1          6           0       -0.805594   -0.666923    0.198056
      2          8           0       -0.879838   -1.076412    1.318226
      3          6           0       -0.590909   -1.398060   -1.080927
      4          1           0        0.011258   -0.804249   -1.769940
      5          1           0       -0.111659   -2.359485   -0.880116
      6          1           0       -1.579415   -1.567655   -1.532987
      7         17           0        2.122915    0.336812    0.035735
      8          6           0       -1.243367    0.955581   -0.058525
      9          7           0       -1.647403    2.039043   -0.188842
 ---------------------------------------------------------------------

 The electronic state is 1-A.
 Alpha  occ. eigenvalues -- -101.41327 -19.17800 -14.33961 -10.33377 -10.23036
 Alpha  occ. eigenvalues --  -10.18996  -9.32662  -7.08469  -7.08429  -7.08426
 Alpha  occ. eigenvalues --   -1.08101  -0.90004  -0.75810  -0.66573  -0.59582
 Alpha  occ. eigenvalues --   -0.49708  -0.45585  -0.45009  -0.40289  -0.37695
 Alpha  occ. eigenvalues --   -0.37561  -0.33750  -0.33639  -0.28811  -0.21221
 Alpha  occ. eigenvalues --   -0.21103  -0.21098
 Alpha virt. eigenvalues --   -0.04763   0.02096   0.03076   0.03310   0.05340
 Alpha virt. eigenvalues --    0.06561   0.06877   0.08462   0.09483   0.09763
 Alpha virt. eigenvalues --    0.10285   0.10574   0.10788   0.13162   0.13353

 Mulliken charges:
               1
     1  C    0.495001
     2  O   -0.332260
     3  C   -0.727715
     4  H    0.274677
     5  H    0.257437
     6  H    0.266911
     7  Cl  -0.922371
     8  C    0.248286
     9  N   -0.559966
 Sum of Mulliken charges =  -1.00000

 Dipole moment (field-independent basis, Debye):
    X=             -7.5223    Y=             -5.7850    Z=             -2.9970  Tot=              9.9516
 Quadrupole moment (field-independent basis, Debye-Ang):
   XX=            -71.2755   YY=            -54.9887   ZZ=            -47.7829
   XY=              3.4840   XZ=              1.5311   YZ=              4.9820

 Normal termination of Gaussian 16 at Wed Jan  8 02:51:35 2020.
