 Gaussian 16, Revision A.03,
 Gaussian 16:  AS64L-G16RevA.03 25-Dec-2016

 ----------------------------------------------------------------------
 #p opt=modredundant b3lyp/6-31+g(d) scrf=(smd, solvent=tetrahydrofuran
 )
 ----------------------------------------------------------------------

 -----
 title
 -----
 Symbolic Z-matrix:
 Charge = -1 Multiplicity = 1

 SCF Done:  E(RB3LYP) =  -706.348976623     A.U. after   15 cycles
 SCF Done:  E(RB3LYP) =  -706.384417419     A.U. after   12 cycles
 SCF Done:  E(RB3LYP) =  -706.395690262     A.U. after   12 cycles
 SCF Done:  E(RB3LYP) =  -706.400448550     A.U. after   12 cycles
 SCF Done:  E(RB3LYP) =  -706.401305297     A.U. after   12 cycles
 SCF Done:  E(RB3LYP) =  -706.401352989     A.U. after   10 cycles
 SCF Done:  E(RB3LYP) =  -706.401388630     A.U. after   10 cycles
 SCF Done:  E(RB3LYP) =  -706.401405518     A.U. after   10 cycles
 SCF Done:  E(RB3LYP) =  -706.401415019     A.U. after   10 cycles
 SCF Done:  E(RB3LYP) =  -706.401417121     A.U. after   10 cycles
 SCF Done:  E(RB3LYP) =  -706.401417149     A.U. after    8 cycles
 SCF Done:  E(RB3LYP) =  -706.401417113     A.U. after    9 cycles
 Optimization completed.
    -- Stationary point found.

                         Standard orientation:
 ---------------------------------------------------------------------
 Center     Atomic      Atomic             Coordinates (Angstroms)
 Number     Number       Type             X           Y           Z
 ---------------------------------------------------------------------
      1          6           0        0.162104    0.927168    0.238542
      2          8           0        0.065562    1.234952    1.347105
      3          6           0        0.029489    1.371409   -1.154959
      4          1           0       -0.007080    0.521941   -1.831590
      5          1           0       -0.883175    1.972918   -1.227989
      6          1           0        0.914856    1.985765   -1.367428
      7         17           0       -1.925172   -0.920847   -0.022461
      8          6           0        1.897507   -0.563242   -0.000318
      9          7           0        2.806318   -1.302550   -0.066797
 ---------------------------------------------------------------------

 The electronic state is 1-A.
 Alpha  occ. eigenvalues -- -101.42678 -19.23755 -14.29288 -10.36943 -10.21876
 Alpha  occ. eigenvalues --  -10.16928  -9.34030  -7.09902  -7.09763  -7.09757
 Alpha  occ. eigenvalues --   -1.14374  -0.85037  -0.78441  -0.67977  -0.56244
 Alpha  occ. eigenvalues --   -0.49449  -0.49111  -0.48099  -0.41072  -0.40790
 Alpha  occ. eigenvalues --   -0.37438  -0.29620  -0.29572  -0.27452  -0.22700
 Alpha  occ. eigenvalues --   -0.22228  -0.22207
 Alpha virt. eigenvalues --   -0.05669  -0.02584   0.02435   0.04822   0.04898
 Alpha virt. eigenvalues --    0.05524   0.06971   0.07660   0.08759   0.09919
 Alpha virt. eigenvalues --    0.09997   0.10382   0.10898   0.12629   0.13436

 Mulliken charges:
               1
     1  C    0.489026
     2  O   -0.169026
     3  C   -0.634789
     4  H    0.310043
     5  H    0.287387
     6  H    0.292786
     7  Cl  -0.826003
     8  C   -0.118503
     9  N   -0.630921
 Sum of Mulliken charges =  -1.00000

 Dipole moment (field-independent basis, Debye):
    X=              0.0818    Y=             10.0554    Z=             -2.6286  Tot=             10.3936
 Quadrupole moment (field-independent basis, Debye-Ang):
   XX=            -84.5109   YY=            -51.1776   ZZ=            -45.3946
   XY=              3.3090   XZ=              0.3132   YZ=             -4.4324

 Normal termination of Gaussian 16 at Wed Jan  8 02:02:05 2020.
