 Gaussian 16, Revision A.03,
 Gaussian 16:  AS64L-G16RevA.03 25-Dec-2016

 ----------------------------------------------------------------------
 #p opt=modredundant b3lyp/6-31+g(d) scrf=(smd, solvent=tetrahydrofuran
 )
 ----------------------------------------------------------------------

 -----
 title
 -----
 Symbolic Z-matrix:
 Charge = -1 Multiplicity = 1

 SCF Done:  E(RB3LYP) =  -706.380064216     A.U. after   14 cycles
 SCF Done:  E(RB3LYP) =  -706.398480887     A.U. after   12 cycles
 SCF Done:  E(RB3LYP) =  -706.401122497     A.U. after   12 cycles
 SCF Done:  E(RB3LYP) =  -706.401302455     A.U. after   11 cycles
 SCF Done:  E(RB3LYP) =  -706.401337816     A.U. after   10 cycles
 SCF Done:  E(RB3LYP) =  -706.401344187     A.U. after   10 cycles
 SCF Done:  E(RB3LYP) =  -706.401349679     A.U. after   10 cycles
 SCF Done:  E(RB3LYP) =  -706.401358610     A.U. after   11 cycles
 SCF Done:  E(RB3LYP) =  -706.401366551     A.U. after   11 cycles
 SCF Done:  E(RB3LYP) =  -706.401365208     A.U. after   11 cycles
 SCF Done:  E(RB3LYP) =  -706.401374590     A.U. after   10 cycles
 SCF Done:  E(RB3LYP) =  -706.401379395     A.U. after   11 cycles
 SCF Done:  E(RB3LYP) =  -706.401378147     A.U. after   10 cycles
 SCF Done:  E(RB3LYP) =  -706.401379647     A.U. after    8 cycles
 SCF Done:  E(RB3LYP) =  -706.401381994     A.U. after    9 cycles
 SCF Done:  E(RB3LYP) =  -706.401383460     A.U. after    9 cycles
 SCF Done:  E(RB3LYP) =  -706.401384921     A.U. after    9 cycles
 Optimization completed.
    -- Stationary point found.

                         Standard orientation:
 ---------------------------------------------------------------------
 Center     Atomic      Atomic             Coordinates (Angstroms)
 Number     Number       Type             X           Y           Z
 ---------------------------------------------------------------------
      1          6           0       -0.491061    0.427581    0.254087
      2          8           0       -0.412891    0.722281    1.429369
      3          6           0       -0.492224    1.449759   -0.863184
      4          1           0       -0.215583    1.015625   -1.824556
      5          1           0       -1.514177    1.851514   -0.933919
      6          1           0        0.190652    2.262943   -0.608100
      7         17           0       -1.199297   -1.055085   -0.181923
      8          6           0        1.779691   -0.201869   -0.201409
      9          7           0        2.921693   -0.432101   -0.016094
 ---------------------------------------------------------------------

 The electronic state is 1-A.
 Alpha  occ. eigenvalues -- -101.52956 -19.12941 -14.26274 -10.30862 -10.17324
 Alpha  occ. eigenvalues --  -10.12721  -9.44817  -7.21113  -7.20293  -7.20206
 Alpha  occ. eigenvalues --   -1.04057  -0.84743  -0.81922  -0.71849  -0.53412
 Alpha  occ. eigenvalues --   -0.45509  -0.44577  -0.43274  -0.38076  -0.36443
 Alpha  occ. eigenvalues --   -0.34541  -0.30237  -0.29993  -0.26814  -0.26629
 Alpha  occ. eigenvalues --   -0.25508  -0.22981
 Alpha virt. eigenvalues --   -0.00644   0.02906   0.04844   0.05510   0.06026
 Alpha virt. eigenvalues --    0.06609   0.08593   0.09119   0.09225   0.09630
 Alpha virt. eigenvalues --    0.10962   0.11109   0.12011   0.13617   0.13720

 Mulliken charges:
               1
     1  C   -0.342160
     2  O   -0.317733
     3  C   -0.401367
     4  H    0.245920
     5  H    0.236802
     6  H    0.247582
     7  Cl   0.175070
     8  C   -0.168456
     9  N   -0.675657
 Sum of Mulliken charges =  -1.00000

 Dipole moment (field-independent basis, Debye):
    X=             -9.3744    Y=              2.3748    Z=             -2.7391  Tot=             10.0510
 Quadrupole moment (field-independent basis, Debye-Ang):
   XX=            -75.8909   YY=            -45.7978   ZZ=            -49.9937
   XY=              3.3249   XZ=              1.8769   YZ=             -3.1268

 Normal termination of Gaussian 16 at Tue Jan  7 23:33:53 2020.
