 Gaussian 16, Revision A.03,
 Gaussian 16:  AS64L-G16RevA.03 25-Dec-2016

 ----------------------------------------------------------------------
 #p opt=modredundant b3lyp/6-31+g(d) scrf=(smd, solvent=tetrahydrofuran
 )
 ----------------------------------------------------------------------

 -----
 title
 -----
 Symbolic Z-matrix:
 Charge = -1 Multiplicity = 1

 SCF Done:  E(RB3LYP) =  -706.406150506     A.U. after   14 cycles
 SCF Done:  E(RB3LYP) =  -706.433710641     A.U. after   13 cycles
 SCF Done:  E(RB3LYP) =  -706.450667230     A.U. after   13 cycles
 SCF Done:  E(RB3LYP) =  -706.451953327     A.U. after   12 cycles
 SCF Done:  E(RB3LYP) =  -706.452114783     A.U. after   11 cycles
 SCF Done:  E(RB3LYP) =  -706.451740942     A.U. after   12 cycles
 SCF Done:  E(RB3LYP) =  -706.452230739     A.U. after   12 cycles
 SCF Done:  E(RB3LYP) =  -706.452228153     A.U. after   10 cycles
 SCF Done:  E(RB3LYP) =  -706.452252435     A.U. after   10 cycles
 SCF Done:  E(RB3LYP) =  -706.452259191     A.U. after    9 cycles
 SCF Done:  E(RB3LYP) =  -706.452260013     A.U. after    8 cycles
 SCF Done:  E(RB3LYP) =  -706.452259684     A.U. after    7 cycles
 Optimization completed.
    -- Stationary point found.

                         Standard orientation:
 ---------------------------------------------------------------------
 Center     Atomic      Atomic             Coordinates (Angstroms)
 Number     Number       Type             X           Y           Z
 ---------------------------------------------------------------------
      1          6           0       -0.683435   -0.533190    0.192202
      2          8           0       -0.832693   -0.951288    1.330212
      3          6           0       -0.569110   -1.409287   -1.028108
      4          1           0       -0.122685   -0.885787   -1.874823
      5          1           0        0.015453   -2.299972   -0.785097
      6          1           0       -1.588542   -1.721481   -1.301426
      7         17           0        1.883339    0.288452    0.029188
      8          6           0       -1.016377    0.905218   -0.072627
      9          7           0       -1.435131    1.976774   -0.246479
 ---------------------------------------------------------------------

 The electronic state is 1-A.
 Alpha  occ. eigenvalues -- -101.42383 -19.14442 -14.34040 -10.30598 -10.23168
 Alpha  occ. eigenvalues --  -10.17677  -9.33784  -7.09653  -7.09512  -7.09504
 Alpha  occ. eigenvalues --   -1.04446  -0.90368  -0.74748  -0.67900  -0.63189
 Alpha  occ. eigenvalues --   -0.47946  -0.43794  -0.43631  -0.39248  -0.37279
 Alpha  occ. eigenvalues --   -0.36538  -0.33555  -0.32929  -0.26389  -0.22251
 Alpha  occ. eigenvalues --   -0.22005  -0.21967
 Alpha virt. eigenvalues --   -0.04668   0.02448   0.03028   0.04445   0.05763
 Alpha virt. eigenvalues --    0.06862   0.07641   0.08784   0.09563   0.10348
 Alpha virt. eigenvalues --    0.10630   0.11189   0.12730   0.13620   0.14124

 Mulliken charges:
               1
     1  C    0.271331
     2  O   -0.390878
     3  C   -0.652127
     4  H    0.248794
     5  H    0.252992
     6  H    0.249122
     7  Cl  -0.805586
     8  C    0.399028
     9  N   -0.572676
 Sum of Mulliken charges =  -1.00000

 Dipole moment (field-independent basis, Debye):
    X=             -5.4292    Y=             -4.4075    Z=             -2.9926  Tot=              7.6065
 Quadrupole moment (field-independent basis, Debye-Ang):
   XX=            -64.5184   YY=            -54.6980   ZZ=            -48.9845
   XY=              2.7388   XZ=              1.7904   YZ=              4.9930

 Normal termination of Gaussian 16 at Wed Jan  8 01:45:16 2020.
