 Gaussian 16, Revision A.03,
 Gaussian 16:  AS64L-G16RevA.03 25-Dec-2016

 ----------------------------------------------------------------------
 #p opt=modredundant b3lyp/6-31+g(d) scrf=(smd, solvent=tetrahydrofuran
 )
 ----------------------------------------------------------------------

 -----
 title
 -----
 Symbolic Z-matrix:
 Charge = -1 Multiplicity = 1

 SCF Done:  E(RB3LYP) =  -706.369274989     A.U. after   14 cycles
 SCF Done:  E(RB3LYP) =  -706.374338676     A.U. after   12 cycles
 SCF Done:  E(RB3LYP) =  -706.374724982     A.U. after   11 cycles
 SCF Done:  E(RB3LYP) =  -706.374754653     A.U. after   10 cycles
 SCF Done:  E(RB3LYP) =  -706.374762399     A.U. after   10 cycles
 SCF Done:  E(RB3LYP) =  -706.374765930     A.U. after    9 cycles
 SCF Done:  E(RB3LYP) =  -706.374767695     A.U. after   10 cycles
 Optimization completed.
    -- Stationary point found.

                         Standard orientation:
 ---------------------------------------------------------------------
 Center     Atomic      Atomic             Coordinates (Angstroms)
 Number     Number       Type             X           Y           Z
 ---------------------------------------------------------------------
      1          6           0       -0.337778    0.332803    0.232252
      2          8           0       -0.362193    0.665225    1.440145
      3          6           0       -0.390928    1.451054   -0.823864
      4          1           0       -0.160608    1.091302   -1.831255
      5          1           0       -1.408394    1.868604   -0.818332
      6          1           0        0.313034    2.239851   -0.545725
      7         17           0       -1.152206   -0.973465   -0.204063
      8          6           0        1.542960   -0.237333   -0.138921
      9          7           0        2.693640   -0.464543   -0.067654
 ---------------------------------------------------------------------

 The electronic state is 1-A.
 Alpha  occ. eigenvalues -- -101.52263 -19.07924 -14.28140 -10.28924 -10.15999
 Alpha  occ. eigenvalues --  -10.15376  -9.44371  -7.20667  -7.19801  -7.19741
 Alpha  occ. eigenvalues --   -0.99707  -0.85691  -0.83999  -0.70103  -0.53489
 Alpha  occ. eigenvalues --   -0.46211  -0.43483  -0.41181  -0.36658  -0.36545
 Alpha  occ. eigenvalues --   -0.34373  -0.29891  -0.28958  -0.28458  -0.27118
 Alpha  occ. eigenvalues --   -0.22817  -0.21525
 Alpha virt. eigenvalues --    0.01138   0.03317   0.05084   0.06154   0.06512
 Alpha virt. eigenvalues --    0.07863   0.08144   0.08818   0.09623   0.09880
 Alpha virt. eigenvalues --    0.10301   0.11020   0.12578   0.13944   0.14073

 Mulliken charges:
               1
     1  C   -0.067109
     2  O   -0.472934
     3  C   -0.523338
     4  H    0.222741
     5  H    0.218603
     6  H    0.232004
     7  Cl   0.126479
     8  C   -0.042660
     9  N   -0.693786
 Sum of Mulliken charges =  -1.00000

 Dipole moment (field-independent basis, Debye):
    X=             -6.3499    Y=              1.2085    Z=             -3.5495  Tot=              7.3743
 Quadrupole moment (field-independent basis, Debye-Ang):
   XX=            -68.5142   YY=            -46.6905   ZZ=            -51.7939
   XY=              3.6546   XZ=              2.2441   YZ=             -3.3715

 Normal termination of Gaussian 16 at Tue Jan  7 23:05:11 2020.
