 Gaussian 16, Revision A.03,
 Gaussian 16:  AS64L-G16RevA.03 25-Dec-2016

 ----------------------------------------------------------------------
 #p opt=modredundant b3lyp/6-31+g(d) scrf=(smd, solvent=tetrahydrofuran
 )
 ----------------------------------------------------------------------

 -----
 title
 -----
 Symbolic Z-matrix:
 Charge = -1 Multiplicity = 1

 SCF Done:  E(RB3LYP) =  -706.394319280     A.U. after   14 cycles
 SCF Done:  E(RB3LYP) =  -706.407548149     A.U. after   12 cycles
 SCF Done:  E(RB3LYP) =  -706.408815555     A.U. after   12 cycles
 SCF Done:  E(RB3LYP) =  -706.408934208     A.U. after   11 cycles
 SCF Done:  E(RB3LYP) =  -706.408955476     A.U. after   10 cycles
 SCF Done:  E(RB3LYP) =  -706.408971863     A.U. after   10 cycles
 SCF Done:  E(RB3LYP) =  -706.408974490     A.U. after    9 cycles
 SCF Done:  E(RB3LYP) =  -706.408975291     A.U. after    8 cycles
 Optimization completed.
    -- Stationary point found.

                         Standard orientation:
 ---------------------------------------------------------------------
 Center     Atomic      Atomic             Coordinates (Angstroms)
 Number     Number       Type             X           Y           Z
 ---------------------------------------------------------------------
      1          6           0       -0.293756    0.527654    0.249240
      2          8           0       -0.355155    0.905290    1.397959
      3          6           0       -0.376200    1.428658   -0.964668
      4          1           0       -0.134933    0.898322   -1.886611
      5          1           0       -1.400263    1.820561   -1.025553
      6          1           0        0.316772    2.264182   -0.824381
      7         17           0       -1.234402   -1.078583   -0.131795
      8          6           0        1.637704   -0.226879   -0.082633
      9          7           0        2.748287   -0.609437   -0.059748
 ---------------------------------------------------------------------

 The electronic state is 1-A.
 Alpha  occ. eigenvalues -- -101.49596 -19.12201 -14.28233 -10.30960 -10.17400
 Alpha  occ. eigenvalues --  -10.15511  -9.41279  -7.17510  -7.16784  -7.16759
 Alpha  occ. eigenvalues --   -1.03165  -0.84086  -0.79011  -0.71605  -0.52398
 Alpha  occ. eigenvalues --   -0.45119  -0.43971  -0.42084  -0.37322  -0.36914
 Alpha  occ. eigenvalues --   -0.34315  -0.29539  -0.28596  -0.27852  -0.27165
 Alpha  occ. eigenvalues --   -0.24869  -0.23905
 Alpha virt. eigenvalues --    0.00135   0.02688   0.04296   0.05370   0.06098
 Alpha virt. eigenvalues --    0.06856   0.08068   0.08509   0.09245   0.09921
 Alpha virt. eigenvalues --    0.10525   0.10696   0.11815   0.13351   0.13825

 Mulliken charges:
               1
     1  C    0.031378
     2  O   -0.344274
     3  C   -0.531134
     4  H    0.243215
     5  H    0.237095
     6  H    0.242761
     7  Cl  -0.157161
     8  C   -0.037805
     9  N   -0.684074
 Sum of Mulliken charges =  -1.00000

 Dipole moment (field-independent basis, Debye):
    X=             -5.7455    Y=              3.3115    Z=             -2.9103  Tot=              7.2420
 Quadrupole moment (field-independent basis, Debye-Ang):
   XX=            -71.1757   YY=            -48.3403   ZZ=            -49.6277
   XY=              3.1393   XZ=              1.7488   YZ=             -4.1188

 Normal termination of Gaussian 16 at Wed Jan  8 00:04:15 2020.
