 Gaussian 16, Revision A.03,
 Gaussian 16:  AS64L-G16RevA.03 25-Dec-2016

 ----------------------------------------------------------------------
 #p opt=modredundant b3lyp/6-31+g(d) scrf=(smd, solvent=tetrahydrofuran
 )
 ----------------------------------------------------------------------

 -----
 title
 -----
 Symbolic Z-matrix:
 Charge = -1 Multiplicity = 1

 SCF Done:  E(RB3LYP) =  -706.375213495     A.U. after   14 cycles
 SCF Done:  E(RB3LYP) =  -706.408506385     A.U. after   13 cycles
 SCF Done:  E(RB3LYP) =  -706.427913392     A.U. after   13 cycles
 SCF Done:  E(RB3LYP) =  -706.433494465     A.U. after   12 cycles
 SCF Done:  E(RB3LYP) =  -706.434205074     A.U. after   11 cycles
 SCF Done:  E(RB3LYP) =  -706.434451418     A.U. after   11 cycles
 SCF Done:  E(RB3LYP) =  -706.434525084     A.U. after   11 cycles
 SCF Done:  E(RB3LYP) =  -706.434534250     A.U. after   10 cycles
 SCF Done:  E(RB3LYP) =  -706.434536392     A.U. after    9 cycles
 SCF Done:  E(RB3LYP) =  -706.434535400     A.U. after    9 cycles
 SCF Done:  E(RB3LYP) =  -706.434536738     A.U. after    9 cycles
 SCF Done:  E(RB3LYP) =  -706.434537000     A.U. after    8 cycles
 SCF Done:  E(RB3LYP) =  -706.434537596     A.U. after    8 cycles
 SCF Done:  E(RB3LYP) =  -706.434538384     A.U. after    8 cycles
 SCF Done:  E(RB3LYP) =  -706.434539035     A.U. after    8 cycles
 Optimization completed.
    -- Stationary point found.

                         Standard orientation:
 ---------------------------------------------------------------------
 Center     Atomic      Atomic             Coordinates (Angstroms)
 Number     Number       Type             X           Y           Z
 ---------------------------------------------------------------------
      1          6           0       -0.775029   -0.755418    0.196479
      2          8           0       -0.812692   -1.168085    1.306212
      3          6           0       -0.472729   -1.389910   -1.109124
      4          1           0        0.128679   -0.717084   -1.722161
      5          1           0        0.050575   -2.335332   -0.944504
      6          1           0       -1.429993   -1.573764   -1.617337
      7         17           0        2.184000    0.453236    0.043811
      8          6           0       -1.413985    0.908868   -0.052298
      9          7           0       -1.915037    1.954945   -0.160118
 ---------------------------------------------------------------------

 The electronic state is 1-A.
 Alpha  occ. eigenvalues -- -101.41213 -19.19222 -14.33474 -10.34360 -10.22407
 Alpha  occ. eigenvalues --  -10.19590  -9.32542  -7.08340  -7.08316  -7.08312
 Alpha  occ. eigenvalues --   -1.09649  -0.89432  -0.76377  -0.66433  -0.58026
 Alpha  occ. eigenvalues --   -0.50228  -0.46415  -0.45710  -0.40570  -0.38449
 Alpha  occ. eigenvalues --   -0.37614  -0.33383  -0.33268  -0.29534  -0.21104
 Alpha  occ. eigenvalues --   -0.21026  -0.21010
 Alpha virt. eigenvalues --   -0.04610   0.01294   0.02672   0.03319   0.05070
 Alpha virt. eigenvalues --    0.06459   0.06584   0.07738   0.09106   0.09502
 Alpha virt. eigenvalues --    0.09979   0.10403   0.10630   0.12962   0.13282

 Mulliken charges:
               1
     1  C    0.569215
     2  O   -0.305878
     3  C   -0.752065
     4  H    0.285840
     5  H    0.261092
     6  H    0.272619
     7  Cl  -0.939695
     8  C    0.173996
     9  N   -0.565125
 Sum of Mulliken charges =  -1.00000

 Dipole moment (field-independent basis, Debye):
    X=             -7.3040    Y=             -6.8080    Z=             -3.0274  Tot=             10.4337
 Quadrupole moment (field-independent basis, Debye-Ang):
   XX=            -74.9829   YY=            -54.7515   ZZ=            -47.1776
   XY=              3.5482   XZ=              0.9688   YZ=              4.9324

 Normal termination of Gaussian 16 at Wed Jan  8 03:01:41 2020.
