 Gaussian 16, Revision A.03,
 Gaussian 16:  AS64L-G16RevA.03 25-Dec-2016

 ----------------------------------------------------------------------
 #p opt=modredundant b3lyp/6-31+g(d) scrf=(smd, solvent=tetrahydrofuran
 )
 ----------------------------------------------------------------------

 -----
 title
 -----
 Symbolic Z-matrix:
 Charge = -1 Multiplicity = 1

 SCF Done:  E(RB3LYP) =  -706.411696268     A.U. after   14 cycles
 SCF Done:  E(RB3LYP) =  -706.422669828     A.U. after   13 cycles
 SCF Done:  E(RB3LYP) =  -706.423649385     A.U. after   12 cycles
 SCF Done:  E(RB3LYP) =  -706.423805713     A.U. after   11 cycles
 SCF Done:  E(RB3LYP) =  -706.423827165     A.U. after   11 cycles
 SCF Done:  E(RB3LYP) =  -706.423828168     A.U. after    9 cycles
 SCF Done:  E(RB3LYP) =  -706.423828206     A.U. after    8 cycles
 Optimization completed.
    -- Stationary point found.

                         Standard orientation:
 ---------------------------------------------------------------------
 Center     Atomic      Atomic             Coordinates (Angstroms)
 Number     Number       Type             X           Y           Z
 ---------------------------------------------------------------------
      1          6           0        0.147208    0.448083    0.206455
      2          8           0        0.171521    0.921871    1.395341
      3          6           0       -0.071955    1.454731   -0.946149
      4          1           0       -0.147808    0.976250   -1.927981
      5          1           0       -0.986825    2.018782   -0.742150
      6          1           0        0.777064    2.150727   -0.952087
      7         17           0       -1.390560   -0.803073   -0.057892
      8          6           0        1.196526   -0.437138   -0.067982
      9          7           0        2.142035   -1.094649   -0.244326
 ---------------------------------------------------------------------

 The electronic state is 1-A.
 Alpha  occ. eigenvalues -- -101.47121 -19.07144 -14.32438 -10.27182 -10.21442
 Alpha  occ. eigenvalues --  -10.16073  -9.38828  -7.14959  -7.14382  -7.14356
 Alpha  occ. eigenvalues --   -0.97405  -0.89000  -0.77004  -0.70541  -0.63313
 Alpha  occ. eigenvalues --   -0.45312  -0.42586  -0.40457  -0.37277  -0.36117
 Alpha  occ. eigenvalues --   -0.35529  -0.31698  -0.31554  -0.26130  -0.25715
 Alpha  occ. eigenvalues --   -0.21980  -0.20836
 Alpha virt. eigenvalues --   -0.00230   0.02688   0.04028   0.04967   0.05939
 Alpha virt. eigenvalues --    0.07250   0.07700   0.09188   0.09789   0.10234
 Alpha virt. eigenvalues --    0.10590   0.11539   0.13639   0.13954   0.14571

 Mulliken charges:
               1
     1  C   -0.045066
     2  O   -0.550323
     3  C   -0.590160
     4  H    0.220499
     5  H    0.233055
     6  H    0.222234
     7  Cl  -0.332691
     8  C    0.500702
     9  N   -0.658250
 Sum of Mulliken charges =  -1.00000

 Dipole moment (field-independent basis, Debye):
    X=             -0.9373    Y=              2.4076    Z=             -3.6613  Tot=              4.4811
 Quadrupole moment (field-independent basis, Debye-Ang):
   XX=            -60.1282   YY=            -51.7426   ZZ=            -51.8395
   XY=              2.5800   XZ=              0.3577   YZ=             -5.4707

 Normal termination of Gaussian 16 at Wed Jan  8 00:16:23 2020.
