 Gaussian 16, Revision A.03,
 Gaussian 16:  AS64L-G16RevA.03 25-Dec-2016

 ----------------------------------------------------------------------
 #p opt=modredundant b3lyp/6-31+g(d) scrf=(smd, solvent=tetrahydrofuran
 )
 ----------------------------------------------------------------------

 -----
 title
 -----
 Symbolic Z-matrix:
 Charge = -1 Multiplicity = 1

 SCF Done:  E(RB3LYP) =  -706.375632690     A.U. after   14 cycles
 SCF Done:  E(RB3LYP) =  -706.405828432     A.U. after   12 cycles
 SCF Done:  E(RB3LYP) =  -706.412532449     A.U. after   12 cycles
 SCF Done:  E(RB3LYP) =  -706.414197896     A.U. after   12 cycles
 SCF Done:  E(RB3LYP) =  -706.414367154     A.U. after   11 cycles
 SCF Done:  E(RB3LYP) =  -706.414398903     A.U. after   10 cycles
 SCF Done:  E(RB3LYP) =  -706.414423327     A.U. after   11 cycles
 SCF Done:  E(RB3LYP) =  -706.414432304     A.U. after   10 cycles
 SCF Done:  E(RB3LYP) =  -706.414436618     A.U. after   10 cycles
 SCF Done:  E(RB3LYP) =  -706.414442086     A.U. after   10 cycles
 SCF Done:  E(RB3LYP) =  -706.414453547     A.U. after   10 cycles
 SCF Done:  E(RB3LYP) =  -706.408661021     A.U. after   14 cycles
 SCF Done:  E(RB3LYP) =  -706.413786429     A.U. after   13 cycles
 SCF Done:  E(RB3LYP) =  -706.414456044     A.U. after   10 cycles
 SCF Done:  E(RB3LYP) =  -706.414338302     A.U. after   11 cycles
 SCF Done:  E(RB3LYP) =  -706.414460318     A.U. after   11 cycles
 SCF Done:  E(RB3LYP) =  -706.414458190     A.U. after   10 cycles
 SCF Done:  E(RB3LYP) =  -706.414460192     A.U. after    9 cycles
 SCF Done:  E(RB3LYP) =  -706.414461361     A.U. after    9 cycles
 SCF Done:  E(RB3LYP) =  -706.414461373     A.U. after    9 cycles
 Optimization completed.
    -- Stationary point found.

                         Standard orientation:
 ---------------------------------------------------------------------
 Center     Atomic      Atomic             Coordinates (Angstroms)
 Number     Number       Type             X           Y           Z
 ---------------------------------------------------------------------
      1          6           0       -0.509962    0.619721    0.279293
      2          8           0       -0.344723    0.863216    1.419795
      3          6           0       -0.399285    1.442176   -0.957434
      4          1           0       -0.110587    0.835030   -1.813199
      5          1           0       -1.390476    1.878381   -1.142654
      6          1           0        0.328535    2.238889   -0.783793
      7         17           0       -1.504867   -1.064692   -0.136541
      8          6           0        2.083907   -0.316129   -0.206533
      9          7           0        3.209299   -0.604697    0.001503
 ---------------------------------------------------------------------

 The electronic state is 1-A.
 Alpha  occ. eigenvalues -- -101.50839 -19.18946 -14.26006 -10.33888 -10.19628
 Alpha  occ. eigenvalues --  -10.12429  -9.42395  -7.18625  -7.17931  -7.17874
 Alpha  occ. eigenvalues --   -1.09655  -0.81600  -0.79429  -0.74229  -0.54108
 Alpha  occ. eigenvalues --   -0.46972  -0.46234  -0.45799  -0.39134  -0.38330
 Alpha  occ. eigenvalues --   -0.35127  -0.29235  -0.29135  -0.28108  -0.26584
 Alpha  occ. eigenvalues --   -0.26567  -0.23236
 Alpha virt. eigenvalues --   -0.02675  -0.00333   0.03137   0.04809   0.05335
 Alpha virt. eigenvalues --    0.05824   0.08292   0.08432   0.09019   0.09601
 Alpha virt. eigenvalues --    0.10380   0.11321   0.11451   0.12955   0.13486

 Mulliken charges:
               1
     1  C    0.089945
     2  O   -0.225670
     3  C   -0.586214
     4  H    0.282467
     5  H    0.267029
     6  H    0.267083
     7  Cl  -0.177664
     8  C   -0.262874
     9  N   -0.654102
 Sum of Mulliken charges =  -1.00000

 Dipole moment (field-independent basis, Debye):
    X=            -10.3256    Y=              5.3901    Z=             -2.1567  Tot=             11.8458
 Quadrupole moment (field-independent basis, Debye-Ang):
   XX=            -85.8130   YY=            -46.1868   ZZ=            -47.8528
   XY=              3.4555   XZ=              1.2676   YZ=             -3.5165

 Normal termination of Gaussian 16 at Wed Jan  8 00:37:34 2020.
