 Gaussian 16, Revision A.03,
 Gaussian 16:  AS64L-G16RevA.03 25-Dec-2016

 ----------------------------------------------------------------------
 #p opt=modredundant b3lyp/6-31+g(d) scrf=(smd, solvent=tetrahydrofuran
 )
 ----------------------------------------------------------------------

 -----
 title
 -----
 Symbolic Z-matrix:
 Charge = -1 Multiplicity = 1

 SCF Done:  E(RB3LYP) =  -706.357441854     A.U. after   15 cycles
 SCF Done:  E(RB3LYP) =  -706.391578952     A.U. after   13 cycles
 SCF Done:  E(RB3LYP) =  -706.404160225     A.U. after   13 cycles
 SCF Done:  E(RB3LYP) =  -706.409551064     A.U. after   12 cycles
 SCF Done:  E(RB3LYP) =  -706.410435542     A.U. after   11 cycles
 SCF Done:  E(RB3LYP) =  -706.410518114     A.U. after   10 cycles
 SCF Done:  E(RB3LYP) =  -706.410533830     A.U. after   10 cycles
 SCF Done:  E(RB3LYP) =  -706.410543912     A.U. after   10 cycles
 SCF Done:  E(RB3LYP) =  -706.410545581     A.U. after    9 cycles
 SCF Done:  E(RB3LYP) =  -706.410546074     A.U. after    8 cycles
 Optimization completed.
    -- Stationary point found.

                         Standard orientation:
 ---------------------------------------------------------------------
 Center     Atomic      Atomic             Coordinates (Angstroms)
 Number     Number       Type             X           Y           Z
 ---------------------------------------------------------------------
      1          6           0        0.351605    0.902741    0.231439
      2          8           0        0.245826    1.249001    1.337097
      3          6           0        0.140787    1.401113   -1.140196
      4          1           0       -0.030809    0.576550   -1.828360
      5          1           0       -0.707738    2.092142   -1.134443
      6          1           0        1.061595    1.931165   -1.421600
      7         17           0       -1.968017   -0.821174   -0.008295
      8          6           0        1.732694   -0.660733   -0.009698
      9          7           0        2.545159   -1.498661   -0.094375
 ---------------------------------------------------------------------

 The electronic state is 1-A.
 Alpha  occ. eigenvalues -- -101.41909 -19.21893 -14.30805 -10.35889 -10.20982
 Alpha  occ. eigenvalues --  -10.19025  -9.33258  -7.09093  -7.09011  -7.09005
 Alpha  occ. eigenvalues --   -1.12526  -0.86637  -0.77477  -0.67214  -0.55776
 Alpha  occ. eigenvalues --   -0.49604  -0.47998  -0.47039  -0.40510  -0.39904
 Alpha  occ. eigenvalues --   -0.37633  -0.31014  -0.30935  -0.28786  -0.21896
 Alpha  occ. eigenvalues --   -0.21619  -0.21590
 Alpha virt. eigenvalues --   -0.04417  -0.01825   0.02478   0.04569   0.04859
 Alpha virt. eigenvalues --    0.05785   0.06655   0.07469   0.08841   0.09892
 Alpha virt. eigenvalues --    0.10001   0.10260   0.10768   0.12700   0.13443

 Mulliken charges:
               1
     1  C    0.548616
     2  O   -0.215008
     3  C   -0.687543
     4  H    0.298544
     5  H    0.277248
     6  H    0.284900
     7  Cl  -0.875024
     8  C   -0.021370
     9  N   -0.610363
 Sum of Mulliken charges =  -1.00000

 Dipole moment (field-independent basis, Debye):
    X=              2.8149    Y=              9.3275    Z=             -2.6812  Tot=             10.1052
 Quadrupole moment (field-independent basis, Debye-Ang):
   XX=            -79.6862   YY=            -52.5251   ZZ=            -46.0846
   XY=              3.3016   XZ=              0.1044   YZ=             -4.6680

 Normal termination of Gaussian 16 at Wed Jan  8 02:15:26 2020.
