 Gaussian 16, Revision A.03,
 Gaussian 16:  AS64L-G16RevA.03 25-Dec-2016

 ----------------------------------------------------------------------
 #p opt=modredundant b3lyp/6-31+g(d) scrf=(smd, solvent=tetrahydrofuran
 )
 ----------------------------------------------------------------------

 -----
 title
 -----
 Symbolic Z-matrix:
 Charge = -1 Multiplicity = 1

 SCF Done:  E(RB3LYP) =  -706.368574042     A.U. after   14 cycles
 SCF Done:  E(RB3LYP) =  -706.401386718     A.U. after   12 cycles
 SCF Done:  E(RB3LYP) =  -706.409118290     A.U. after   12 cycles
 SCF Done:  E(RB3LYP) =  -706.411916046     A.U. after   12 cycles
 SCF Done:  E(RB3LYP) =  -706.412138975     A.U. after   11 cycles
 SCF Done:  E(RB3LYP) =  -706.412164303     A.U. after   10 cycles
 SCF Done:  E(RB3LYP) =  -706.412179719     A.U. after   10 cycles
 SCF Done:  E(RB3LYP) =  -706.412207834     A.U. after   11 cycles
 SCF Done:  E(RB3LYP) =  -706.412181105     A.U. after   11 cycles
 SCF Done:  E(RB3LYP) =  -706.412221214     A.U. after   11 cycles
 SCF Done:  E(RB3LYP) =  -706.411830369     A.U. after   12 cycles
 SCF Done:  E(RB3LYP) =  -706.412252828     A.U. after   11 cycles
 SCF Done:  E(RB3LYP) =  -706.412281734     A.U. after    7 cycles
 SCF Done:  E(RB3LYP) =  -706.412264466     A.U. after   11 cycles
 SCF Done:  E(RB3LYP) =  -706.412286772     A.U. after   11 cycles
 SCF Done:  E(RB3LYP) =  -706.412299043     A.U. after   11 cycles
 SCF Done:  E(RB3LYP) =  -706.412304329     A.U. after   10 cycles
 SCF Done:  E(RB3LYP) =  -706.412309941     A.U. after    9 cycles
 SCF Done:  E(RB3LYP) =  -706.412315690     A.U. after    9 cycles
 SCF Done:  E(RB3LYP) =  -706.412316550     A.U. after    9 cycles
 Optimization completed.
    -- Stationary point found.

                         Standard orientation:
 ---------------------------------------------------------------------
 Center     Atomic      Atomic             Coordinates (Angstroms)
 Number     Number       Type             X           Y           Z
 ---------------------------------------------------------------------
      1          6           0       -0.460706    0.666300    0.274562
      2          8           0       -0.290095    0.899868    1.407816
      3          6           0       -0.231960    1.374011   -1.008420
      4          1           0        0.032237    0.672925   -1.797862
      5          1           0       -1.172650    1.875838   -1.270564
      6          1           0        0.560766    2.112447   -0.859759
      7         17           0       -1.712727   -0.972018   -0.123385
      8          6           0        2.151829   -0.528754   -0.121046
      9          7           0        3.323113   -0.629314   -0.015341
 ---------------------------------------------------------------------

 The electronic state is 1-A.
 Alpha  occ. eigenvalues -- -101.49999 -19.20697 -14.26074 -10.34818 -10.20387
 Alpha  occ. eigenvalues --  -10.12515  -9.41492  -7.17688  -7.17051  -7.17002
 Alpha  occ. eigenvalues --   -1.11330  -0.81660  -0.78545  -0.74522  -0.54742
 Alpha  occ. eigenvalues --   -0.47487  -0.47233  -0.46600  -0.39602  -0.39255
 Alpha  occ. eigenvalues --   -0.35241  -0.29058  -0.28387  -0.27816  -0.26664
 Alpha  occ. eigenvalues --   -0.26642  -0.23352
 Alpha virt. eigenvalues --   -0.03511  -0.01778   0.02969   0.04779   0.05281
 Alpha virt. eigenvalues --    0.05719   0.08021   0.08183   0.08968   0.09626
 Alpha virt. eigenvalues --    0.10199   0.11376   0.11423   0.12783   0.13283

 Mulliken charges:
               1
     1  C    0.262976
     2  O   -0.211840
     3  C   -0.656125
     4  H    0.294246
     5  H    0.276220
     6  H    0.273318
     7  Cl  -0.299383
     8  C   -0.294611
     9  N   -0.644801
 Sum of Mulliken charges =  -1.00000

 Dipole moment (field-independent basis, Debye):
    X=             -9.8350    Y=              6.4343    Z=             -2.2582  Tot=             11.9678
 Quadrupole moment (field-independent basis, Debye-Ang):
   XX=            -90.5851   YY=            -46.3745   ZZ=            -46.9734
   XY=              4.0752   XZ=              0.8403   YZ=             -3.7009

 Normal termination of Gaussian 16 at Wed Jan  8 00:57:53 2020.
