 Gaussian 16, Revision A.03,
 Gaussian 16:  AS64L-G16RevA.03 25-Dec-2016

 ----------------------------------------------------------------------
 #p opt=modredundant b3lyp/6-31+g(d) scrf=(smd, solvent=tetrahydrofuran
 )
 ----------------------------------------------------------------------

 -----
 title
 -----
 Symbolic Z-matrix:
 Charge = -1 Multiplicity = 1

 SCF Done:  E(RB3LYP) =  -706.335622479     A.U. after   15 cycles
 SCF Done:  E(RB3LYP) =  -706.362271111     A.U. after   13 cycles
 SCF Done:  E(RB3LYP) =  -706.376462809     A.U. after   15 cycles
 SCF Done:  E(RB3LYP) =  -706.377417354     A.U. after   12 cycles
 SCF Done:  E(RB3LYP) =  -706.377526287     A.U. after   12 cycles
 SCF Done:  E(RB3LYP) =  -706.377598919     A.U. after   12 cycles
 SCF Done:  E(RB3LYP) =  -706.377612989     A.U. after   10 cycles
 SCF Done:  E(RB3LYP) =  -706.377613448     A.U. after    9 cycles
 Optimization completed.
    -- Stationary point found.

                         Standard orientation:
 ---------------------------------------------------------------------
 Center     Atomic      Atomic             Coordinates (Angstroms)
 Number     Number       Type             X           Y           Z
 ---------------------------------------------------------------------
      1          6           0       -0.635910   -0.359566    0.179425
      2          8           0       -0.841187   -0.805457    1.340571
      3          6           0       -0.575872   -1.356824   -0.986115
      4          1           0       -0.165387   -0.921370   -1.899764
      5          1           0        0.022364   -2.218572   -0.682556
      6          1           0       -1.605873   -1.688704   -1.180633
      7         17           0        1.788509    0.231348    0.027720
      8          6           0       -0.900546    0.784945   -0.065650
      9          7           0       -1.321757    1.846865   -0.314115
 ---------------------------------------------------------------------

 The electronic state is 1-A.
 Alpha  occ. eigenvalues -- -101.43462 -19.12427 -14.34044 -10.26586 -10.21598
 Alpha  occ. eigenvalues --  -10.16994  -9.34938  -7.10874  -7.10618  -7.10610
 Alpha  occ. eigenvalues --   -1.02119  -0.90607  -0.77305  -0.69083  -0.68103
 Alpha  occ. eigenvalues --   -0.46606  -0.44497  -0.44077  -0.38344  -0.37248
 Alpha  occ. eigenvalues --   -0.37127  -0.32045  -0.30744  -0.24466  -0.23154
 Alpha  occ. eigenvalues --   -0.22904  -0.22632
 Alpha virt. eigenvalues --   -0.06791   0.02138   0.02707   0.04989   0.05943
 Alpha virt. eigenvalues --    0.07079   0.08856   0.09282   0.09527   0.10468
 Alpha virt. eigenvalues --    0.10697   0.12311   0.13638   0.13861   0.14417

 Mulliken charges:
               1
     1  C   -0.050367
     2  O   -0.462919
     3  C   -0.578483
     4  H    0.235304
     5  H    0.248656
     6  H    0.235679
     7  Cl  -0.688379
     8  C    0.655050
     9  N   -0.594540
 Sum of Mulliken charges =  -1.00000

 Dipole moment (field-independent basis, Debye):
    X=             -3.9541    Y=             -3.3645    Z=             -3.0258  Tot=              6.0092
 Quadrupole moment (field-independent basis, Debye-Ang):
   XX=            -61.2237   YY=            -53.6054   ZZ=            -49.7119
   XY=              2.3620   XZ=              2.0115   YZ=              4.7902

 Normal termination of Gaussian 16 at Wed Jan  8 01:16:29 2020.
