 Gaussian 16, Revision A.03,
 Gaussian 16:  AS64L-G16RevA.03 25-Dec-2016

 ----------------------------------------------------------------------
 #p opt=modredundant b3lyp/6-31+g(d) scrf=(smd, solvent=tetrahydrofuran
 )
 ----------------------------------------------------------------------

 -----
 title
 -----
 Symbolic Z-matrix:
 Charge = -1 Multiplicity = 1

 SCF Done:  E(RB3LYP) =  -706.323345940     A.U. after   14 cycles
 SCF Done:  E(RB3LYP) =  -706.333925858     A.U. after   14 cycles
 SCF Done:  E(RB3LYP) =  -706.334354048     A.U. after   12 cycles
 SCF Done:  E(RB3LYP) =  -706.334639519     A.U. after   12 cycles
 SCF Done:  E(RB3LYP) =  -706.334654994     A.U. after   11 cycles
 SCF Done:  E(RB3LYP) =  -706.334674364     A.U. after   11 cycles
 SCF Done:  E(RB3LYP) =  -706.334678295     A.U. after   10 cycles
 SCF Done:  E(RB3LYP) =  -706.334678879     A.U. after    9 cycles
 Optimization completed.
    -- Stationary point found.

                         Standard orientation:
 ---------------------------------------------------------------------
 Center     Atomic      Atomic             Coordinates (Angstroms)
 Number     Number       Type             X           Y           Z
 ---------------------------------------------------------------------
      1          6           0        0.128650    0.283917    0.185038
      2          8           0        0.202726    0.735157    1.447204
      3          6           0        0.006656    1.466659   -0.858158
      4          1           0       -0.094002    1.118558   -1.892991
      5          1           0       -0.870780    2.055874   -0.576243
      6          1           0        0.903209    2.089700   -0.769161
      7         17           0       -1.352811   -0.697190   -0.102541
      8          6           0        1.072734   -0.412554   -0.067220
      9          7           0        2.027045   -1.045897   -0.307712
 ---------------------------------------------------------------------

 The electronic state is 1-A.
 Alpha  occ. eigenvalues -- -101.49688 -19.04945 -14.31206 -10.24473 -10.19764
 Alpha  occ. eigenvalues --  -10.16120  -9.41534  -7.17792  -7.17004  -7.16975
 Alpha  occ. eigenvalues --   -0.96403  -0.87590  -0.80663  -0.71966  -0.66266
 Alpha  occ. eigenvalues --   -0.46648  -0.43720  -0.41024  -0.37145  -0.36462
 Alpha  occ. eigenvalues --   -0.35213  -0.30613  -0.30045  -0.27459  -0.26869
 Alpha  occ. eigenvalues --   -0.19955  -0.18881
 Alpha virt. eigenvalues --    0.00233   0.02725   0.03870   0.05273   0.06090
 Alpha virt. eigenvalues --    0.07344   0.08290   0.09685   0.09950   0.10203
 Alpha virt. eigenvalues --    0.10608   0.11587   0.14031   0.14306   0.14800

 Mulliken charges:
               1
     1  C   -0.223332
     2  O   -0.648520
     3  C   -0.599133
     4  H    0.216789
     5  H    0.229856
     6  H    0.219460
     7  Cl  -0.107405
     8  C    0.636940
     9  N   -0.724657
 Sum of Mulliken charges =  -1.00000

 Dipole moment (field-independent basis, Debye):
    X=             -2.5585    Y=              1.6873    Z=             -4.1826  Tot=              5.1853
 Quadrupole moment (field-independent basis, Debye-Ang):
   XX=            -58.0961   YY=            -50.1597   ZZ=            -53.4152
   XY=              3.8270   XZ=              0.3500   YZ=             -5.2894

 Normal termination of Gaussian 16 at Tue Jan  7 23:34:16 2020.
