 Gaussian 16, Revision A.03,
 Gaussian 16:  AS64L-G16RevA.03 25-Dec-2016

 ----------------------------------------------------------------------
 #p opt=modredundant b3lyp/6-31+g(d) scrf=(smd, solvent=tetrahydrofuran
 )
 ----------------------------------------------------------------------

 -----
 title
 -----
 Symbolic Z-matrix:
 Charge = -1 Multiplicity = 1

 SCF Done:  E(RB3LYP) =  -706.382030122     A.U. after   15 cycles
 SCF Done:  E(RB3LYP) =  -706.409328885     A.U. after   13 cycles
 SCF Done:  E(RB3LYP) =  -706.425332729     A.U. after   15 cycles
 SCF Done:  E(RB3LYP) =  -706.426422065     A.U. after   12 cycles
 SCF Done:  E(RB3LYP) =  -706.426616840     A.U. after   12 cycles
 SCF Done:  E(RB3LYP) =  -706.426683986     A.U. after   11 cycles
 SCF Done:  E(RB3LYP) =  -706.426700430     A.U. after   11 cycles
 SCF Done:  E(RB3LYP) =  -706.426702581     A.U. after    9 cycles
 Optimization completed.
    -- Stationary point found.

                         Standard orientation:
 ---------------------------------------------------------------------
 Center     Atomic      Atomic             Coordinates (Angstroms)
 Number     Number       Type             X           Y           Z
 ---------------------------------------------------------------------
      1          6           0       -0.678748   -0.409338    0.180426
      2          8           0       -0.881914   -0.838919    1.331993
      3          6           0       -0.598528   -1.368392   -0.999542
      4          1           0       -0.154672   -0.912040   -1.886567
      5          1           0       -0.024010   -2.250109   -0.707033
      6          1           0       -1.626497   -1.679961   -1.236984
      7         17           0        1.839640    0.220394    0.034969
      8          6           0       -0.923566    0.842404   -0.070981
      9          7           0       -1.315477    1.916960   -0.297036
 ---------------------------------------------------------------------

 The electronic state is 1-A.
 Alpha  occ. eigenvalues -- -101.42939 -19.13210 -14.34268 -10.28111 -10.22491
 Alpha  occ. eigenvalues --  -10.17157  -9.34376  -7.10279  -7.10080  -7.10072
 Alpha  occ. eigenvalues --   -1.02914  -0.90772  -0.76004  -0.68511  -0.67075
 Alpha  occ. eigenvalues --   -0.47113  -0.44019  -0.43843  -0.38695  -0.37373
 Alpha  occ. eigenvalues --   -0.36948  -0.32934  -0.31673  -0.25177  -0.22728
 Alpha  occ. eigenvalues --   -0.22475  -0.22356
 Alpha virt. eigenvalues --   -0.06169   0.02301   0.02723   0.04858   0.05902
 Alpha virt. eigenvalues --    0.06996   0.08594   0.09055   0.09521   0.10437
 Alpha virt. eigenvalues --    0.10687   0.12046   0.13250   0.13723   0.14343

 Mulliken charges:
               1
     1  C    0.095977
     2  O   -0.437334
     3  C   -0.608459
     4  H    0.239829
     5  H    0.250370
     6  H    0.240490
     7  Cl  -0.746558
     8  C    0.545033
     9  N   -0.579348
 Sum of Mulliken charges =  -1.00000

 Dipole moment (field-independent basis, Debye):
    X=             -4.7492    Y=             -3.5688    Z=             -3.0228  Tot=              6.6655
 Quadrupole moment (field-independent basis, Debye-Ang):
   XX=            -62.5809   YY=            -54.0058   ZZ=            -49.4577
   XY=              2.3867   XZ=              2.0366   YZ=              4.8105

 Normal termination of Gaussian 16 at Wed Jan  8 01:31:01 2020.
