 Gaussian 16, Revision A.03,
 Gaussian 16:  AS64L-G16RevA.03 25-Dec-2016

 ----------------------------------------------------------------------
 #p opt=modredundant b3lyp/6-31+g(d) scrf=(smd, solvent=tetrahydrofuran
 )
 ----------------------------------------------------------------------

 -----
 title
 -----
 Symbolic Z-matrix:
 Charge = -1 Multiplicity = 1

 SCF Done:  E(RB3LYP) =  -706.400972930     A.U. after   14 cycles
 SCF Done:  E(RB3LYP) =  -706.430825129     A.U. after   13 cycles
 SCF Done:  E(RB3LYP) =  -706.451409085     A.U. after   13 cycles
 SCF Done:  E(RB3LYP) =  -706.453458274     A.U. after   12 cycles
 SCF Done:  E(RB3LYP) =  -706.453714415     A.U. after   11 cycles
 SCF Done:  E(RB3LYP) =  -706.453836234     A.U. after   11 cycles
 SCF Done:  E(RB3LYP) =  -706.453886821     A.U. after   10 cycles
 SCF Done:  E(RB3LYP) =  -706.453901364     A.U. after   11 cycles
 SCF Done:  E(RB3LYP) =  -706.453913896     A.U. after   10 cycles
 SCF Done:  E(RB3LYP) =  -706.453914536     A.U. after    9 cycles
 SCF Done:  E(RB3LYP) =  -706.453914924     A.U. after    9 cycles
 Optimization completed.
    -- Stationary point found.

                         Standard orientation:
 ---------------------------------------------------------------------
 Center     Atomic      Atomic             Coordinates (Angstroms)
 Number     Number       Type             X           Y           Z
 ---------------------------------------------------------------------
      1          6           0       -0.817306   -0.494979    0.185090
      2          8           0       -1.005716   -0.898606    1.319057
      3          6           0       -0.711436   -1.364572   -1.035962
      4          1           0       -0.141289   -0.883360   -1.831930
      5          1           0       -0.255686   -2.320639   -0.766951
      6          1           0       -1.734504   -1.549321   -1.397537
      7         17           0        2.005176    0.156177    0.045126
      8          6           0       -0.978956    0.973602   -0.074023
      9          7           0       -1.266371    2.086120   -0.253401
 ---------------------------------------------------------------------

 The electronic state is 1-A.
 Alpha  occ. eigenvalues -- -101.41851 -19.15498 -14.34519 -10.31135 -10.23519
 Alpha  occ. eigenvalues --  -10.17979  -9.33210  -7.09048  -7.08958  -7.08954
 Alpha  occ. eigenvalues --   -1.05427  -0.90775  -0.75199  -0.67213  -0.63669
 Alpha  occ. eigenvalues --   -0.48548  -0.44424  -0.44132  -0.39600  -0.37644
 Alpha  occ. eigenvalues --   -0.36914  -0.33933  -0.33407  -0.27119  -0.21734
 Alpha  occ. eigenvalues --   -0.21542  -0.21531
 Alpha virt. eigenvalues --   -0.05517   0.02328   0.02754   0.04384   0.05744
 Alpha virt. eigenvalues --    0.06765   0.07669   0.08780   0.09485   0.10321
 Alpha virt. eigenvalues --    0.10625   0.10957   0.12642   0.13521   0.13890

 Mulliken charges:
               1
     1  C    0.332616
     2  O   -0.382409
     3  C   -0.673111
     4  H    0.255592
     5  H    0.253684
     6  H    0.255301
     7  Cl  -0.866723
     8  C    0.379450
     9  N   -0.554399
 Sum of Mulliken charges =  -1.00000

 Dipole moment (field-independent basis, Debye):
    X=             -6.9210    Y=             -4.0979    Z=             -3.0392  Tot=              8.5983
 Quadrupole moment (field-independent basis, Debye-Ang):
   XX=            -66.3729   YY=            -54.8614   ZZ=            -48.6898
   XY=              3.0211   XZ=              2.2303   YZ=              4.8325

 Normal termination of Gaussian 16 at Wed Jan  8 02:11:11 2020.
