 Gaussian 16, Revision A.03,
 Gaussian 16:  AS64L-G16RevA.03 25-Dec-2016

 ----------------------------------------------------------------------
 #p opt=modredundant b3lyp/6-31+g(d) scrf=(smd, solvent=tetrahydrofuran
 )
 ----------------------------------------------------------------------

 -----
 title
 -----
 Symbolic Z-matrix:
 Charge = -1 Multiplicity = 1

 SCF Done:  E(RB3LYP) =  -706.408409349     A.U. after   14 cycles
 SCF Done:  E(RB3LYP) =  -706.431176066     A.U. after   13 cycles
 SCF Done:  E(RB3LYP) =  -706.441034182     A.U. after   13 cycles
 SCF Done:  E(RB3LYP) =  -706.441735291     A.U. after   12 cycles
 SCF Done:  E(RB3LYP) =  -706.441832852     A.U. after   11 cycles
 SCF Done:  E(RB3LYP) =  -706.441855665     A.U. after   11 cycles
 SCF Done:  E(RB3LYP) =  -706.441857934     A.U. after    9 cycles
 Optimization completed.
    -- Stationary point found.

                         Standard orientation:
 ---------------------------------------------------------------------
 Center     Atomic      Atomic             Coordinates (Angstroms)
 Number     Number       Type             X           Y           Z
 ---------------------------------------------------------------------
      1          6           0        0.481179    0.515972    0.195140
      2          8           0        0.602476    0.969640    1.346266
      3          6           0        0.324669    1.442291   -1.002450
      4          1           0        0.032314    0.913070   -1.912034
      5          1           0       -0.413271    2.213477   -0.768134
      6          1           0        1.297814    1.926952   -1.170415
      7         17           0       -1.690399   -0.489082    0.010440
      8          6           0        1.061751   -0.730151   -0.069650
      9          7           0        1.684931   -1.694983   -0.262181
 ---------------------------------------------------------------------

 The electronic state is 1-A.
 Alpha  occ. eigenvalues -- -101.43794 -19.11802 -14.33513 -10.28605 -10.22451
 Alpha  occ. eigenvalues --  -10.16916  -9.35301  -7.11250  -7.10974  -7.10958
 Alpha  occ. eigenvalues --   -1.01737  -0.90043  -0.74761  -0.69415  -0.64606
 Alpha  occ. eigenvalues --   -0.46544  -0.43143  -0.42545  -0.38404  -0.36769
 Alpha  occ. eigenvalues --   -0.36324  -0.32799  -0.31651  -0.24451  -0.23499
 Alpha  occ. eigenvalues --   -0.23128  -0.22742
 Alpha virt. eigenvalues --   -0.03845   0.02569   0.03242   0.04784   0.05861
 Alpha virt. eigenvalues --    0.07060   0.08019   0.08939   0.09637   0.10417
 Alpha virt. eigenvalues --    0.10643   0.11723   0.13134   0.13782   0.14414

 Mulliken charges:
               1
     1  C    0.088515
     2  O   -0.443804
     3  C   -0.604060
     4  H    0.235072
     5  H    0.246704
     6  H    0.235398
     7  Cl  -0.653212
     8  C    0.503543
     9  N   -0.608157
 Sum of Mulliken charges =  -1.00000

 Dipole moment (field-independent basis, Debye):
    X=              2.7871    Y=              4.0117    Z=             -3.0916  Tot=              5.7810
 Quadrupole moment (field-independent basis, Debye-Ang):
   XX=            -61.7306   YY=            -53.9069   ZZ=            -49.8428
   XY=              2.2088   XZ=             -1.1256   YZ=             -5.2074

 Normal termination of Gaussian 16 at Wed Jan  8 01:43:59 2020.
