 Gaussian 16, Revision A.03,
 Gaussian 16:  AS64L-G16RevA.03 25-Dec-2016

 ----------------------------------------------------------------------
 #p opt=modredundant b3lyp/6-31+g(d) scrf=(smd, solvent=tetrahydrofuran
 )
 ----------------------------------------------------------------------

 -----
 title
 -----
 Symbolic Z-matrix:
 Charge = -1 Multiplicity = 1

 SCF Done:  E(RB3LYP) =  -706.396505359     A.U. after   15 cycles
 SCF Done:  E(RB3LYP) =  -706.428083584     A.U. after   13 cycles
 SCF Done:  E(RB3LYP) =  -706.451369209     A.U. after   13 cycles
 SCF Done:  E(RB3LYP) =  -706.454008455     A.U. after   12 cycles
 SCF Done:  E(RB3LYP) =  -706.454364406     A.U. after   11 cycles
 SCF Done:  E(RB3LYP) =  -706.454469163     A.U. after   10 cycles
 SCF Done:  E(RB3LYP) =  -706.454558879     A.U. after   11 cycles
 SCF Done:  E(RB3LYP) =  -706.454587375     A.U. after    9 cycles
 SCF Done:  E(RB3LYP) =  -706.454598981     A.U. after   10 cycles
 SCF Done:  E(RB3LYP) =  -706.454602112     A.U. after    9 cycles
 SCF Done:  E(RB3LYP) =  -706.454603871     A.U. after    9 cycles
 SCF Done:  E(RB3LYP) =  -706.454602610     A.U. after    9 cycles
 SCF Done:  E(RB3LYP) =  -706.454602227     A.U. after    8 cycles
 Optimization completed.
    -- Stationary point found.

                         Standard orientation:
 ---------------------------------------------------------------------
 Center     Atomic      Atomic             Coordinates (Angstroms)
 Number     Number       Type             X           Y           Z
 ---------------------------------------------------------------------
      1          6           0       -0.914302   -0.483169    0.179594
      2          8           0       -1.106259   -0.878440    1.313747
      3          6           0       -0.778747   -1.348359   -1.037841
      4          1           0       -0.095394   -0.907843   -1.766304
      5          1           0       -0.434634   -2.343235   -0.744711
      6          1           0       -1.773794   -1.434241   -1.500093
      7         17           0        2.125077    0.113622    0.053043
      8          6           0       -1.019759    0.990926   -0.077163
      9          7           0       -1.242223    2.117840   -0.255449
 ---------------------------------------------------------------------

 The electronic state is 1-A.
 Alpha  occ. eigenvalues -- -101.41459 -19.16291 -14.35030 -10.31593 -10.23866
 Alpha  occ. eigenvalues --  -10.18236  -9.32794  -7.08609  -7.08557  -7.08554
 Alpha  occ. eigenvalues --   -1.06177  -0.91209  -0.75640  -0.66709  -0.64103
 Alpha  occ. eigenvalues --   -0.49038  -0.44942  -0.44565  -0.39924  -0.37996
 Alpha  occ. eigenvalues --   -0.37280  -0.34332  -0.33870  -0.27685  -0.21338
 Alpha  occ. eigenvalues --   -0.21200  -0.21192
 Alpha virt. eigenvalues --   -0.06191   0.02137   0.02510   0.04320   0.05698
 Alpha virt. eigenvalues --    0.06673   0.07706   0.08761   0.09399   0.10292
 Alpha virt. eigenvalues --    0.10582   0.10687   0.12494   0.13392   0.13648

 Mulliken charges:
               1
     1  C    0.395445
     2  O   -0.379266
     3  C   -0.692626
     4  H    0.262988
     5  H    0.252721
     6  H    0.259415
     7  Cl  -0.912268
     8  C    0.356827
     9  N   -0.543236
 Sum of Mulliken charges =  -1.00000

 Dipole moment (field-independent basis, Debye):
    X=             -8.1033    Y=             -3.9624    Z=             -3.0939  Tot=              9.5361
 Quadrupole moment (field-independent basis, Debye-Ang):
   XX=            -68.8703   YY=            -54.6921   ZZ=            -48.4813
   XY=              3.0909   XZ=              2.4156   YZ=              4.7526

 Normal termination of Gaussian 16 at Wed Jan  8 02:40:02 2020.
