 Gaussian 16, Revision A.03,
 Gaussian 16:  AS64L-G16RevA.03 25-Dec-2016

 ----------------------------------------------------------------------
 #p opt=modredundant b3lyp/6-31+g(d) scrf=(smd, solvent=tetrahydrofuran
 )
 ----------------------------------------------------------------------

 -----
 title
 -----
 Symbolic Z-matrix:
 Charge = -1 Multiplicity = 1

 SCF Done:  E(RB3LYP) =  -706.333248137     A.U. after   14 cycles
 SCF Done:  E(RB3LYP) =  -706.345943357     A.U. after   12 cycles
 SCF Done:  E(RB3LYP) =  -706.346848864     A.U. after   12 cycles
 SCF Done:  E(RB3LYP) =  -706.346950559     A.U. after   11 cycles
 SCF Done:  E(RB3LYP) =  -706.346994506     A.U. after   11 cycles
 SCF Done:  E(RB3LYP) =  -706.347036941     A.U. after   11 cycles
 SCF Done:  E(RB3LYP) =  -706.347055878     A.U. after   10 cycles
 SCF Done:  E(RB3LYP) =  -706.347065583     A.U. after   11 cycles
 SCF Done:  E(RB3LYP) =  -706.347065574     A.U. after    8 cycles
 Optimization completed.
    -- Stationary point found.

                         Standard orientation:
 ---------------------------------------------------------------------
 Center     Atomic      Atomic             Coordinates (Angstroms)
 Number     Number       Type             X           Y           Z
 ---------------------------------------------------------------------
      1          6           0       -0.453613    0.292326    0.233633
      2          8           0       -0.383310    0.563339    1.449533
      3          6           0       -0.435963    1.464697   -0.760104
      4          1           0       -0.201784    1.150463   -1.780573
      5          1           0       -1.440798    1.914837   -0.750752
      6          1           0        0.285944    2.213105   -0.428021
      7         17           0       -1.151021   -0.951125   -0.232682
      8          6           0        1.632715   -0.245317   -0.211536
      9          7           0        2.790235   -0.383746   -0.036183
 ---------------------------------------------------------------------

 The electronic state is 1-A.
 Alpha  occ. eigenvalues -- -101.53896 -19.09407 -14.26603 -10.28900 -10.16194
 Alpha  occ. eigenvalues --  -10.13153  -9.46285  -7.22568  -7.21715  -7.21588
 Alpha  occ. eigenvalues --   -1.01920  -0.89218  -0.82327  -0.70447  -0.54304
 Alpha  occ. eigenvalues --   -0.46034  -0.44837  -0.42721  -0.37220  -0.36506
 Alpha  occ. eigenvalues --   -0.34651  -0.29639  -0.29297  -0.27127  -0.26426
 Alpha  occ. eigenvalues --   -0.23263  -0.22178
 Alpha virt. eigenvalues --   -0.00037   0.03174   0.05045   0.06065   0.06488
 Alpha virt. eigenvalues --    0.07673   0.08632   0.09228   0.09603   0.09655
 Alpha virt. eigenvalues --    0.10576   0.11185   0.12504   0.13773   0.14061

 Mulliken charges:
               1
     1  C   -0.338734
     2  O   -0.424283
     3  C   -0.407568
     4  H    0.227140
     5  H    0.219652
     6  H    0.238115
     7  Cl   0.322869
     8  C   -0.149107
     9  N   -0.688086
 Sum of Mulliken charges =  -1.00000

 Dipole moment (field-independent basis, Debye):
    X=             -8.6345    Y=              1.1606    Z=             -3.2790  Tot=              9.3088
 Quadrupole moment (field-independent basis, Debye-Ang):
   XX=            -71.6898   YY=            -45.3678   ZZ=            -51.4761
   XY=              3.7493   XZ=              2.2092   YZ=             -2.6035

 Normal termination of Gaussian 16 at Tue Jan  7 22:52:42 2020.
