 Gaussian 16, Revision A.03,
 Gaussian 16:  AS64L-G16RevA.03 25-Dec-2016

 ----------------------------------------------------------------------
 #p opt=modredundant b3lyp/6-31+g(d) scrf=(smd, solvent=tetrahydrofuran
 )
 ----------------------------------------------------------------------

 -----
 title
 -----
 Symbolic Z-matrix:
 Charge = -1 Multiplicity = 1

 SCF Done:  E(RB3LYP) =  -706.398621867     A.U. after   14 cycles
 SCF Done:  E(RB3LYP) =  -706.429424359     A.U. after   13 cycles
 SCF Done:  E(RB3LYP) =  -706.451394655     A.U. after   13 cycles
 SCF Done:  E(RB3LYP) =  -706.453831484     A.U. after   12 cycles
 SCF Done:  E(RB3LYP) =  -706.454158333     A.U. after   11 cycles
 SCF Done:  E(RB3LYP) =  -706.454243692     A.U. after   10 cycles
 SCF Done:  E(RB3LYP) =  -706.454328947     A.U. after   11 cycles
 SCF Done:  E(RB3LYP) =  -706.454340481     A.U. after   10 cycles
 SCF Done:  E(RB3LYP) =  -706.454342525     A.U. after   10 cycles
 SCF Done:  E(RB3LYP) =  -706.454343133     A.U. after    9 cycles
 Optimization completed.
    -- Stationary point found.

                         Standard orientation:
 ---------------------------------------------------------------------
 Center     Atomic      Atomic             Coordinates (Angstroms)
 Number     Number       Type             X           Y           Z
 ---------------------------------------------------------------------
      1          6           0       -0.865702   -0.487689    0.182449
      2          8           0       -1.054207   -0.885764    1.317205
      3          6           0       -0.749337   -1.358637   -1.034734
      4          1           0       -0.145122   -0.890491   -1.813419
      5          1           0       -0.326158   -2.326181   -0.753930
      6          1           0       -1.766146   -1.515618   -1.425919
      7         17           0        2.066247    0.133248    0.047859
      8          6           0       -0.998142    0.983778   -0.076866
      9          7           0       -1.253719    2.104069   -0.254724
 ---------------------------------------------------------------------

 The electronic state is 1-A.
 Alpha  occ. eigenvalues -- -101.41642 -19.15911 -14.34789 -10.31374 -10.23704
 Alpha  occ. eigenvalues --  -10.18118  -9.32986  -7.08813  -7.08742  -7.08739
 Alpha  occ. eigenvalues --   -1.05819  -0.90998  -0.75410  -0.66937  -0.63906
 Alpha  occ. eigenvalues --   -0.48806  -0.44692  -0.44354  -0.39767  -0.37831
 Alpha  occ. eigenvalues --   -0.37097  -0.34136  -0.33637  -0.27415  -0.21525
 Alpha  occ. eigenvalues --   -0.21356  -0.21347
 Alpha virt. eigenvalues --   -0.05889   0.02254   0.02609   0.04346   0.05722
 Alpha virt. eigenvalues --    0.06721   0.07680   0.08760   0.09450   0.10314
 Alpha virt. eigenvalues --    0.10609   0.10845   0.12569   0.13465   0.13780

 Mulliken charges:
               1
     1  C    0.359557
     2  O   -0.379484
     3  C   -0.682207
     4  H    0.258281
     5  H    0.254255
     6  H    0.257828
     7  Cl  -0.890993
     8  C    0.370659
     9  N   -0.547896
 Sum of Mulliken charges =  -1.00000

 Dipole moment (field-independent basis, Debye):
    X=             -7.5407    Y=             -4.0397    Z=             -3.0541  Tot=              9.0834
 Quadrupole moment (field-independent basis, Debye-Ang):
   XX=            -67.6107   YY=            -54.7446   ZZ=            -48.6018
   XY=              3.0834   XZ=              2.3372   YZ=              4.7853

 Normal termination of Gaussian 16 at Wed Jan  8 02:19:59 2020.
