 Gaussian 16, Revision A.03,
 Gaussian 16:  AS64L-G16RevA.03 25-Dec-2016

 ----------------------------------------------------------------------
 #p opt=modredundant b3lyp/6-31+g(d) scrf=(smd, solvent=tetrahydrofuran
 )
 ----------------------------------------------------------------------

 -----
 title
 -----
 Symbolic Z-matrix:
 Charge = -1 Multiplicity = 1

 SCF Done:  E(RB3LYP) =  -706.408929714     A.U. after   13 cycles
 SCF Done:  E(RB3LYP) =  -706.434994545     A.U. after   13 cycles
 SCF Done:  E(RB3LYP) =  -706.449580863     A.U. after   13 cycles
 SCF Done:  E(RB3LYP) =  -706.450653932     A.U. after   12 cycles
 SCF Done:  E(RB3LYP) =  -706.450787907     A.U. after   11 cycles
 SCF Done:  E(RB3LYP) =  -706.450607390     A.U. after   12 cycles
 SCF Done:  E(RB3LYP) =  -706.450814439     A.U. after   11 cycles
 SCF Done:  E(RB3LYP) =  -706.450819251     A.U. after   10 cycles
 SCF Done:  E(RB3LYP) =  -706.450821934     A.U. after    9 cycles
 SCF Done:  E(RB3LYP) =  -706.450823530     A.U. after    8 cycles
 Optimization completed.
    -- Stationary point found.

                         Standard orientation:
 ---------------------------------------------------------------------
 Center     Atomic      Atomic             Coordinates (Angstroms)
 Number     Number       Type             X           Y           Z
 ---------------------------------------------------------------------
      1          6           0        0.596929    0.558971    0.195915
      2          8           0        0.721716    0.993022    1.333824
      3          6           0        0.452705    1.431208   -1.027183
      4          1           0        0.087603    0.877540   -1.893670
      5          1           0       -0.218115    2.264595   -0.804544
      6          1           0        1.450371    1.834932   -1.257246
      7         17           0       -1.815139   -0.395876    0.022141
      8          6           0        1.064332   -0.841520   -0.068959
      9          7           0        1.582853   -1.869043   -0.241453
 ---------------------------------------------------------------------

 The electronic state is 1-A.
 Alpha  occ. eigenvalues -- -101.42737 -19.13781 -14.33804 -10.30293 -10.22969
 Alpha  occ. eigenvalues --  -10.17496  -9.34165  -7.10053  -7.09879  -7.09869
 Alpha  occ. eigenvalues --   -1.03814  -0.90160  -0.74531  -0.68324  -0.62909
 Alpha  occ. eigenvalues --   -0.47580  -0.43477  -0.43286  -0.39044  -0.37082
 Alpha  occ. eigenvalues --   -0.36336  -0.33350  -0.32655  -0.25938  -0.22576
 Alpha  occ. eigenvalues --   -0.22302  -0.22218
 Alpha virt. eigenvalues --   -0.04162   0.02492   0.03191   0.04483   0.05772
 Alpha virt. eigenvalues --    0.06915   0.07598   0.08800   0.09606   0.10361
 Alpha virt. eigenvalues --    0.10634   0.11274   0.12792   0.13677   0.14239

 Mulliken charges:
               1
     1  C    0.234267
     2  O   -0.398350
     3  C   -0.639593
     4  H    0.245091
     5  H    0.252248
     6  H    0.245365
     7  Cl  -0.765668
     8  C    0.408954
     9  N   -0.582314
 Sum of Mulliken charges =  -1.00000

 Dipole moment (field-independent basis, Debye):
    X=              4.4839    Y=              4.5319    Z=             -2.9973  Tot=              7.0447
 Quadrupole moment (field-independent basis, Debye-Ang):
   XX=            -63.9288   YY=            -54.4597   ZZ=            -49.1604
   XY=              2.4713   XZ=             -1.4162   YZ=             -5.1031

 Normal termination of Gaussian 16 at Wed Jan  8 01:29:27 2020.
