 Gaussian 16, Revision A.03,
 Gaussian 16:  AS64L-G16RevA.03 25-Dec-2016

 ----------------------------------------------------------------------
 #p opt=modredundant b3lyp/6-31+g(d) scrf=(smd, solvent=tetrahydrofuran
 )
 ----------------------------------------------------------------------

 -----
 title
 -----
 Symbolic Z-matrix:
 Charge = -1 Multiplicity = 1

 SCF Done:  E(RB3LYP) =  -706.335646619     A.U. after   14 cycles
 SCF Done:  E(RB3LYP) =  -706.374106853     A.U. after   13 cycles
 SCF Done:  E(RB3LYP) =  -706.386881734     A.U. after   12 cycles
 SCF Done:  E(RB3LYP) =  -706.392738957     A.U. after   12 cycles
 SCF Done:  E(RB3LYP) =  -706.393910525     A.U. after   11 cycles
 SCF Done:  E(RB3LYP) =  -706.394010085     A.U. after   11 cycles
 SCF Done:  E(RB3LYP) =  -706.394039717     A.U. after   10 cycles
 SCF Done:  E(RB3LYP) =  -706.394064518     A.U. after   10 cycles
 SCF Done:  E(RB3LYP) =  -706.394071247     A.U. after    9 cycles
 SCF Done:  E(RB3LYP) =  -706.394080634     A.U. after   10 cycles
 SCF Done:  E(RB3LYP) =  -706.394084223     A.U. after    9 cycles
 SCF Done:  E(RB3LYP) =  -706.394088626     A.U. after   10 cycles
 SCF Done:  E(RB3LYP) =  -706.394089707     A.U. after    9 cycles
 SCF Done:  E(RB3LYP) =  -706.394090309     A.U. after    9 cycles
 SCF Done:  E(RB3LYP) =  -706.394090746     A.U. after    9 cycles
 SCF Done:  E(RB3LYP) =  -706.394091076     A.U. after    9 cycles
 SCF Done:  E(RB3LYP) =  -706.394091292     A.U. after    9 cycles
 SCF Done:  E(RB3LYP) =  -706.394091389     A.U. after    9 cycles
 SCF Done:  E(RB3LYP) =  -706.394091202     A.U. after    9 cycles
 SCF Done:  E(RB3LYP) =  -706.394091345     A.U. after    8 cycles
 Optimization completed.
    -- Stationary point found.

                         Standard orientation:
 ---------------------------------------------------------------------
 Center     Atomic      Atomic             Coordinates (Angstroms)
 Number     Number       Type             X           Y           Z
 ---------------------------------------------------------------------
      1          6           0        0.011384    0.962242    0.232127
      2          8           0       -0.028301    1.218213    1.346152
      3          6           0       -0.004628    1.289066   -1.186649
      4          1           0        0.037080    0.386965   -1.791563
      5          1           0       -0.933148    1.842608   -1.374381
      6          1           0        0.874461    1.920416   -1.370314
      7         17           0       -2.023188   -0.944567   -0.022032
      8          6           0        2.126626   -0.534450    0.018438
      9          7           0        3.120273   -1.162743   -0.034559
 ---------------------------------------------------------------------

 The electronic state is 1-A.
 Alpha  occ. eigenvalues -- -101.43374 -19.26711 -14.27700 -10.38742 -10.23221
 Alpha  occ. eigenvalues --  -10.14674  -9.34714  -7.10611  -7.10436  -7.10428
 Alpha  occ. eigenvalues --   -1.17278  -0.83360  -0.80226  -0.68603  -0.57801
 Alpha  occ. eigenvalues --   -0.50979  -0.50576  -0.49931  -0.42599  -0.42312
 Alpha  occ. eigenvalues --   -0.36603  -0.28169  -0.28146  -0.25676  -0.23427
 Alpha  occ. eigenvalues --   -0.22777  -0.22761
 Alpha virt. eigenvalues --   -0.06880  -0.04214   0.02202   0.04719   0.04936
 Alpha virt. eigenvalues --    0.05208   0.07311   0.07743   0.08619   0.09686
 Alpha virt. eigenvalues --    0.09914   0.10783   0.11134   0.12538   0.13310

 Mulliken charges:
               1
     1  C    0.489708
     2  O   -0.139595
     3  C   -0.616414
     4  H    0.331419
     5  H    0.304901
     6  H    0.307425
     7  Cl  -0.802073
     8  C   -0.227474
     9  N   -0.647897
 Sum of Mulliken charges =  -1.00000

 Dipole moment (field-independent basis, Debye):
    X=             -2.5432    Y=             10.8336    Z=             -2.7951  Tot=             11.4738
 Quadrupole moment (field-independent basis, Debye-Ang):
   XX=            -94.7119   YY=            -49.6911   ZZ=            -44.3570
   XY=              3.7847   XZ=              0.1881   YZ=             -4.0904

 Normal termination of Gaussian 16 at Wed Jan  8 02:07:37 2020.
