 Gaussian 16, Revision A.03,
 Gaussian 16:  AS64L-G16RevA.03 25-Dec-2016

 ----------------------------------------------------------------------
 #p opt=modredundant b3lyp/6-31+g(d) scrf=(smd, solvent=tetrahydrofuran
 )
 ----------------------------------------------------------------------

 -----
 title
 -----
 Symbolic Z-matrix:
 Charge = -1 Multiplicity = 1

 SCF Done:  E(RB3LYP) =  -706.407227824     A.U. after   14 cycles
 SCF Done:  E(RB3LYP) =  -706.421091673     A.U. after   12 cycles
 SCF Done:  E(RB3LYP) =  -706.423316058     A.U. after   12 cycles
 SCF Done:  E(RB3LYP) =  -706.423483208     A.U. after   11 cycles
 SCF Done:  E(RB3LYP) =  -706.423502657     A.U. after   10 cycles
 SCF Done:  E(RB3LYP) =  -706.423507991     A.U. after   10 cycles
 SCF Done:  E(RB3LYP) =  -706.423508606     A.U. after    9 cycles
 SCF Done:  E(RB3LYP) =  -706.423509022     A.U. after    9 cycles
 Optimization completed.
    -- Stationary point found.

                         Standard orientation:
 ---------------------------------------------------------------------
 Center     Atomic      Atomic             Coordinates (Angstroms)
 Number     Number       Type             X           Y           Z
 ---------------------------------------------------------------------
      1          6           0       -0.036369    0.602844    0.237406
      2          8           0       -0.114948    1.035653    1.375607
      3          6           0       -0.264306    1.435208   -1.009088
      4          1           0       -0.161377    0.845889   -1.922095
      5          1           0       -1.267259    1.872658   -0.963244
      6          1           0        0.476117    2.245602   -1.012257
      7         17           0       -1.333818   -1.019785   -0.068697
      8          6           0        1.472591   -0.331550   -0.062503
      9          7           0        2.502217   -0.878861   -0.133471
 ---------------------------------------------------------------------

 The electronic state is 1-A.
 Alpha  occ. eigenvalues -- -101.46351 -19.11064 -14.31026 -10.30524 -10.19612
 Alpha  occ. eigenvalues --  -10.17141  -9.37954  -7.14048  -7.13536  -7.13523
 Alpha  occ. eigenvalues --   -1.01786  -0.87151  -0.75220  -0.70865  -0.54909
 Alpha  occ. eigenvalues --   -0.46023  -0.42800  -0.41227  -0.38151  -0.35603
 Alpha  occ. eigenvalues --   -0.35069  -0.31480  -0.31117  -0.25573  -0.25460
 Alpha  occ. eigenvalues --   -0.24124  -0.23450
 Alpha virt. eigenvalues --    0.00492   0.02501   0.03964   0.05192   0.05538
 Alpha virt. eigenvalues --    0.07083   0.07189   0.08591   0.09707   0.10223
 Alpha virt. eigenvalues --    0.10365   0.10545   0.12362   0.13406   0.13876

 Mulliken charges:
               1
     1  C    0.192978
     2  O   -0.399843
     3  C   -0.599807
     4  H    0.237681
     5  H    0.240363
     6  H    0.236151
     7  Cl  -0.427611
     8  C    0.166083
     9  N   -0.645995
 Sum of Mulliken charges =  -1.00000

 Dipole moment (field-independent basis, Debye):
    X=             -1.8726    Y=              4.0272    Z=             -3.0554  Tot=              5.3907
 Quadrupole moment (field-independent basis, Debye-Ang):
   XX=            -65.9121   YY=            -51.2449   ZZ=            -49.8790
   XY=              2.1997   XZ=              1.3243   YZ=             -4.9812

 Normal termination of Gaussian 16 at Wed Jan  8 00:36:49 2020.
