 Gaussian 16, Revision A.03,
 Gaussian 16:  AS64L-G16RevA.03 25-Dec-2016

 ----------------------------------------------------------------------
 #p opt=modredundant b3lyp/6-31+g(d) scrf=(smd, solvent=tetrahydrofuran
 )
 ----------------------------------------------------------------------

 -----
 title
 -----
 Symbolic Z-matrix:
 Charge = -1 Multiplicity = 1

 SCF Done:  E(RB3LYP) =  -706.377267740     A.U. after   14 cycles
 SCF Done:  E(RB3LYP) =  -706.404226231     A.U. after   12 cycles
 SCF Done:  E(RB3LYP) =  -706.409722307     A.U. after   12 cycles
 SCF Done:  E(RB3LYP) =  -706.410975715     A.U. after   12 cycles
 SCF Done:  E(RB3LYP) =  -706.411069656     A.U. after   10 cycles
 SCF Done:  E(RB3LYP) =  -706.411153518     A.U. after   11 cycles
 SCF Done:  E(RB3LYP) =  -706.411174111     A.U. after   10 cycles
 SCF Done:  E(RB3LYP) =  -706.411182249     A.U. after   10 cycles
 SCF Done:  E(RB3LYP) =  -706.411183906     A.U. after    9 cycles
 SCF Done:  E(RB3LYP) =  -706.411184051     A.U. after    9 cycles
 Optimization completed.
    -- Stationary point found.

                         Standard orientation:
 ---------------------------------------------------------------------
 Center     Atomic      Atomic             Coordinates (Angstroms)
 Number     Number       Type             X           Y           Z
 ---------------------------------------------------------------------
      1          6           0       -0.019164    0.793681    0.244917
      2          8           0       -0.108325    1.183303    1.353029
      3          6           0       -0.165148    1.431033   -1.094756
      4          1           0       -0.076030    0.700415   -1.895080
      5          1           0       -1.141856    1.925061   -1.134715
      6          1           0        0.631116    2.181896   -1.180685
      7         17           0       -1.535592   -1.043556   -0.046641
      8          6           0        1.681188   -0.409805   -0.020456
      9          7           0        2.653884   -1.060401   -0.085584
 ---------------------------------------------------------------------

 The electronic state is 1-A.
 Alpha  occ. eigenvalues -- -101.44591 -19.18045 -14.29614 -10.33705 -10.19545
 Alpha  occ. eigenvalues --  -10.17550  -9.36028  -7.12020  -7.11683  -7.11678
 Alpha  occ. eigenvalues --   -1.08761  -0.85482  -0.75632  -0.70109  -0.53879
 Alpha  occ. eigenvalues --   -0.47333  -0.45498  -0.45078  -0.39027  -0.37940
 Alpha  occ. eigenvalues --   -0.36154  -0.30054  -0.29888  -0.27130  -0.24344
 Alpha  occ. eigenvalues --   -0.23670  -0.23558
 Alpha virt. eigenvalues --   -0.03204   0.00862   0.02948   0.05135   0.05336
 Alpha virt. eigenvalues --    0.06160   0.07186   0.07920   0.09049   0.10044
 Alpha virt. eigenvalues --    0.10323   0.10521   0.10993   0.12896   0.13636

 Mulliken charges:
               1
     1  C    0.325129
     2  O   -0.239579
     3  C   -0.595498
     4  H    0.273101
     5  H    0.263145
     6  H    0.263712
     7  Cl  -0.630340
     8  C   -0.016207
     9  N   -0.643465
 Sum of Mulliken charges =  -1.00000

 Dipole moment (field-independent basis, Debye):
    X=             -1.9018    Y=              7.3389    Z=             -2.5916  Tot=              8.0120
 Quadrupole moment (field-independent basis, Debye-Ang):
   XX=            -73.5175   YY=            -51.3946   ZZ=            -47.2507
   XY=              2.3495   XZ=              0.9609   YZ=             -4.6784

 Normal termination of Gaussian 16 at Wed Jan  8 01:13:51 2020.
