 Gaussian 16, Revision A.03,
 Gaussian 16:  AS64L-G16RevA.03 25-Dec-2016

 ----------------------------------------------------------------------
 #p opt=modredundant b3lyp/6-31+g(d) scrf=(smd, solvent=tetrahydrofuran
 )
 ----------------------------------------------------------------------

 -----
 title
 -----
 Symbolic Z-matrix:
 Charge = -1 Multiplicity = 1

 SCF Done:  E(RB3LYP) =  -706.349002539     A.U. after   14 cycles
 SCF Done:  E(RB3LYP) =  -706.384624506     A.U. after   13 cycles
 SCF Done:  E(RB3LYP) =  -706.394364204     A.U. after   12 cycles
 SCF Done:  E(RB3LYP) =  -706.397982268     A.U. after   11 cycles
 SCF Done:  E(RB3LYP) =  -706.398369939     A.U. after   11 cycles
 SCF Done:  E(RB3LYP) =  -706.398398919     A.U. after   10 cycles
 SCF Done:  E(RB3LYP) =  -706.398411964     A.U. after   10 cycles
 SCF Done:  E(RB3LYP) =  -706.398414963     A.U. after    9 cycles
 SCF Done:  E(RB3LYP) =  -706.398418137     A.U. after   10 cycles
 SCF Done:  E(RB3LYP) =  -706.398420084     A.U. after   10 cycles
 SCF Done:  E(RB3LYP) =  -706.398420465     A.U. after    9 cycles
 SCF Done:  E(RB3LYP) =  -706.398420470     A.U. after    9 cycles
 Optimization completed.
    -- Stationary point found.

                         Standard orientation:
 ---------------------------------------------------------------------
 Center     Atomic      Atomic             Coordinates (Angstroms)
 Number     Number       Type             X           Y           Z
 ---------------------------------------------------------------------
      1          6           0       -0.069131    0.892109    0.245622
      2          8           0       -0.094733    1.187382    1.359293
      3          6           0       -0.083242    1.354357   -1.147962
      4          1           0        0.017001    0.521541   -1.837945
      5          1           0       -1.037618    1.872097   -1.303247
      6          1           0        0.756901    2.051752   -1.256418
      7         17           0       -1.834005   -0.995518   -0.040878
      8          6           0        2.003951   -0.482733   -0.003660
      9          7           0        3.012885   -1.086148   -0.049399
 ---------------------------------------------------------------------

 The electronic state is 1-A.
 Alpha  occ. eigenvalues -- -101.44437 -19.24183 -14.27788 -10.37115 -10.22096
 Alpha  occ. eigenvalues --  -10.14833  -9.35799  -7.11759  -7.11485  -7.11475
 Alpha  occ. eigenvalues --   -1.14780  -0.83468  -0.78653  -0.69708  -0.56329
 Alpha  occ. eigenvalues --   -0.49379  -0.49025  -0.48300  -0.41271  -0.40933
 Alpha  occ. eigenvalues --   -0.36537  -0.28264  -0.28220  -0.25857  -0.24386
 Alpha  occ. eigenvalues --   -0.23572  -0.23523
 Alpha virt. eigenvalues --   -0.06188  -0.02618   0.02535   0.04842   0.05163
 Alpha virt. eigenvalues --    0.05406   0.07448   0.07971   0.08768   0.09824
 Alpha virt. eigenvalues --    0.10011   0.10764   0.11118   0.12644   0.13406

 Mulliken charges:
               1
     1  C    0.388234
     2  O   -0.146096
     3  C   -0.587706
     4  H    0.312894
     5  H    0.291686
     6  H    0.292583
     7  Cl  -0.708946
     8  C   -0.192569
     9  N   -0.650080
 Sum of Mulliken charges =  -1.00000

 Dipole moment (field-independent basis, Debye):
    X=             -3.5404    Y=              9.6928    Z=             -2.5710  Tot=             10.6346
 Quadrupole moment (field-independent basis, Debye-Ang):
   XX=            -87.5635   YY=            -49.7117   ZZ=            -45.2325
   XY=              3.4186   XZ=              0.5097   YZ=             -4.2469

 Normal termination of Gaussian 16 at Wed Jan  8 01:38:47 2020.
