 Gaussian 16, Revision A.03,
 Gaussian 16:  AS64L-G16RevA.03 25-Dec-2016

 ----------------------------------------------------------------------
 #p opt=modredundant b3lyp/6-31+g(d) scrf=(smd, solvent=tetrahydrofuran
 )
 ----------------------------------------------------------------------

 -----
 title
 -----
 Symbolic Z-matrix:
 Charge = -1 Multiplicity = 1

 SCF Done:  E(RB3LYP) =  -706.332165976     A.U. after   14 cycles
 SCF Done:  E(RB3LYP) =  -706.354416473     A.U. after   12 cycles
 SCF Done:  E(RB3LYP) =  -706.357800579     A.U. after   12 cycles
 SCF Done:  E(RB3LYP) =  -706.358162050     A.U. after   11 cycles
 SCF Done:  E(RB3LYP) =  -706.358187986     A.U. after   10 cycles
 SCF Done:  E(RB3LYP) =  -706.358249634     A.U. after   11 cycles
 SCF Done:  E(RB3LYP) =  -706.358285245     A.U. after   11 cycles
 SCF Done:  E(RB3LYP) =  -706.358350360     A.U. after   11 cycles
 SCF Done:  E(RB3LYP) =  -706.358383454     A.U. after   11 cycles
 SCF Done:  E(RB3LYP) =  -706.358375010     A.U. after   11 cycles
 SCF Done:  E(RB3LYP) =  -706.358387758     A.U. after   11 cycles
 SCF Done:  E(RB3LYP) =  -706.358390739     A.U. after   10 cycles
 SCF Done:  E(RB3LYP) =  -706.358393741     A.U. after   11 cycles
 SCF Done:  E(RB3LYP) =  -706.358392989     A.U. after   10 cycles
 SCF Done:  E(RB3LYP) =  -706.358394930     A.U. after    9 cycles
 SCF Done:  E(RB3LYP) =  -706.358397352     A.U. after   10 cycles
 SCF Done:  E(RB3LYP) =  -706.358399306     A.U. after   10 cycles
 SCF Done:  E(RB3LYP) =  -706.358399308     A.U. after    9 cycles
 Optimization completed.
    -- Stationary point found.

                         Standard orientation:
 ---------------------------------------------------------------------
 Center     Atomic      Atomic             Coordinates (Angstroms)
 Number     Number       Type             X           Y           Z
 ---------------------------------------------------------------------
      1          6           0       -0.576780    0.315707    0.242437
      2          8           0       -0.433061    0.571156    1.441791
      3          6           0       -0.496160    1.454730   -0.772127
      4          1           0       -0.226662    1.109507   -1.772439
      5          1           0       -1.493485    1.918866   -0.818028
      6          1           0        0.221765    2.200707   -0.427710
      7         17           0       -1.181200   -0.974023   -0.227962
      8          6           0        1.802088   -0.271928   -0.253216
      9          7           0        2.952625   -0.318714    0.008090
 ---------------------------------------------------------------------

 The electronic state is 1-A.
 Alpha  occ. eigenvalues -- -101.55019 -19.11507 -14.25716 -10.29528 -10.16723
 Alpha  occ. eigenvalues --  -10.11981  -9.47372  -7.23647  -7.22833  -7.22659
 Alpha  occ. eigenvalues --   -1.03667  -0.90510  -0.81335  -0.71234  -0.54980
 Alpha  occ. eigenvalues --   -0.45914  -0.45522  -0.43962  -0.37959  -0.36803
 Alpha  occ. eigenvalues --   -0.34627  -0.30552  -0.29905  -0.26348  -0.26082
 Alpha  occ. eigenvalues --   -0.24462  -0.22537
 Alpha virt. eigenvalues --   -0.00878   0.03022   0.04902   0.05781   0.06242
 Alpha virt. eigenvalues --    0.07330   0.08591   0.09234   0.09345   0.09535
 Alpha virt. eigenvalues --    0.11036   0.11286   0.12417   0.13607   0.13875

 Mulliken charges:
               1
     1  C   -0.549463
     2  O   -0.368244
     3  C   -0.334590
     4  H    0.236364
     5  H    0.230494
     6  H    0.246380
     7  Cl   0.429625
     8  C   -0.226771
     9  N   -0.663794
 Sum of Mulliken charges =  -1.00000

 Dipole moment (field-independent basis, Debye):
    X=            -10.7061    Y=              1.3703    Z=             -2.9699  Tot=             11.1946
 Quadrupole moment (field-independent basis, Debye-Ang):
   XX=            -76.1970   YY=            -44.6795   ZZ=            -50.8929
   XY=              3.5344   XZ=              2.0786   YZ=             -2.5053

 Normal termination of Gaussian 16 at Tue Jan  7 23:01:58 2020.
