 Gaussian 16, Revision A.03,
 Gaussian 16:  AS64L-G16RevA.03 25-Dec-2016

 ----------------------------------------------------------------------
 #p opt=modredundant b3lyp/6-31+g(d) scrf=(smd, solvent=tetrahydrofuran
 )
 ----------------------------------------------------------------------

 -----
 title
 -----
 Symbolic Z-matrix:
 Charge = -1 Multiplicity = 1

 SCF Done:  E(RB3LYP) =  -706.403820313     A.U. after   14 cycles
 SCF Done:  E(RB3LYP) =  -706.407562192     A.U. after   11 cycles
 SCF Done:  E(RB3LYP) =  -706.407874049     A.U. after   11 cycles
 SCF Done:  E(RB3LYP) =  -706.407891579     A.U. after   10 cycles
 SCF Done:  E(RB3LYP) =  -706.407898702     A.U. after   10 cycles
 SCF Done:  E(RB3LYP) =  -706.407898624     A.U. after    9 cycles
 Optimization completed.
    -- Stationary point found.

                         Standard orientation:
 ---------------------------------------------------------------------
 Center     Atomic      Atomic             Coordinates (Angstroms)
 Number     Number       Type             X           Y           Z
 ---------------------------------------------------------------------
      1          6           0       -0.172551    0.428746    0.234405
      2          8           0       -0.241167    0.834623    1.416913
      3          6           0       -0.334135    1.435213   -0.914061
      4          1           0       -0.171884    0.982098   -1.897030
      5          1           0       -1.349852    1.847755   -0.869687
      6          1           0        0.382401    2.250702   -0.766804
      7         17           0       -1.210415   -0.993917   -0.138245
      8          6           0        1.454384   -0.268542   -0.092504
      9          7           0        2.565648   -0.633351   -0.116951
 ---------------------------------------------------------------------

 The electronic state is 1-A.
 Alpha  occ. eigenvalues -- -101.49676 -19.07292 -14.30222 -10.29198 -10.18467
 Alpha  occ. eigenvalues --  -10.16098  -9.41493  -7.17738  -7.16970  -7.16950
 Alpha  occ. eigenvalues --   -0.98269  -0.86347  -0.80264  -0.70187  -0.54447
 Alpha  occ. eigenvalues --   -0.45910  -0.42440  -0.39784  -0.37268  -0.35868
 Alpha  occ. eigenvalues --   -0.34383  -0.31268  -0.30302  -0.27718  -0.27057
 Alpha  occ. eigenvalues --   -0.22572  -0.21301
 Alpha virt. eigenvalues --    0.02176   0.03379   0.04585   0.05755   0.06002
 Alpha virt. eigenvalues --    0.07141   0.07560   0.08839   0.09703   0.10185
 Alpha virt. eigenvalues --    0.10331   0.10781   0.13338   0.13922   0.14019

 Mulliken charges:
               1
     1  C    0.100289
     2  O   -0.501440
     3  C   -0.593952
     4  H    0.222618
     5  H    0.225356
     6  H    0.227899
     7  Cl  -0.126417
     8  C    0.116941
     9  N   -0.671294
 Sum of Mulliken charges =  -1.00000

 Dipole moment (field-independent basis, Debye):
    X=             -3.7364    Y=              1.7983    Z=             -3.6111  Tot=              5.4986
 Quadrupole moment (field-independent basis, Debye-Ang):
   XX=            -65.1599   YY=            -48.9873   ZZ=            -51.7574
   XY=              3.1357   XZ=              1.8768   YZ=             -4.5396

 Normal termination of Gaussian 16 at Tue Jan  7 23:41:18 2020.
