 Gaussian 16, Revision A.03,
 Gaussian 16:  AS64L-G16RevA.03 25-Dec-2016

 ----------------------------------------------------------------------
 #p opt=modredundant b3lyp/6-31+g(d) scrf=(smd, solvent=tetrahydrofuran
 )
 ----------------------------------------------------------------------

 -----
 title
 -----
 Symbolic Z-matrix:
 Charge = -1 Multiplicity = 1

 SCF Done:  E(RB3LYP) =  -706.334688723     A.U. after   14 cycles
 SCF Done:  E(RB3LYP) =  -706.343226426     A.U. after   12 cycles
 SCF Done:  E(RB3LYP) =  -706.344674554     A.U. after   12 cycles
 SCF Done:  E(RB3LYP) =  -706.344818933     A.U. after   11 cycles
 SCF Done:  E(RB3LYP) =  -706.344852742     A.U. after   11 cycles
 SCF Done:  E(RB3LYP) =  -706.344867063     A.U. after   10 cycles
 SCF Done:  E(RB3LYP) =  -706.344869144     A.U. after   10 cycles
 SCF Done:  E(RB3LYP) =  -706.344870036     A.U. after    9 cycles
 Optimization completed.
    -- Stationary point found.

                         Standard orientation:
 ---------------------------------------------------------------------
 Center     Atomic      Atomic             Coordinates (Angstroms)
 Number     Number       Type             X           Y           Z
 ---------------------------------------------------------------------
      1          6           0       -0.017397    0.218251    0.170473
      2          8           0        0.008455    0.610631    1.487038
      3          6           0       -0.159350    1.491345   -0.773483
      4          1           0       -0.165763    1.234468   -1.841269
      5          1           0       -1.103707    1.976759   -0.505227
      6          1           0        0.667604    2.177611   -0.567200
      7         17           0       -1.216608   -0.783918   -0.172383
      8          6           0        1.142355   -0.314346   -0.077144
      9          7           0        2.203273   -0.759826   -0.281596
 ---------------------------------------------------------------------

 The electronic state is 1-A.
 Alpha  occ. eigenvalues -- -101.51335 -19.03041 -14.30958 -10.24659 -10.20144
 Alpha  occ. eigenvalues --  -10.15773  -9.43478  -7.19785  -7.18884  -7.18852
 Alpha  occ. eigenvalues --   -0.96059  -0.87342  -0.83113  -0.70552  -0.64584
 Alpha  occ. eigenvalues --   -0.48563  -0.43315  -0.40583  -0.37443  -0.36019
 Alpha  occ. eigenvalues --   -0.35275  -0.31055  -0.30529  -0.28119  -0.26645
 Alpha  occ. eigenvalues --   -0.18220  -0.17503
 Alpha virt. eigenvalues --    0.02707   0.03460   0.04464   0.05304   0.06256
 Alpha virt. eigenvalues --    0.07344   0.07960   0.09688   0.09937   0.10166
 Alpha virt. eigenvalues --    0.10411   0.11504   0.14100   0.14476   0.15040

 Mulliken charges:
               1
     1  C   -0.135168
     2  O   -0.709462
     3  C   -0.635365
     4  H    0.211007
     5  H    0.223706
     6  H    0.219436
     7  Cl   0.053821
     8  C    0.511044
     9  N   -0.739020
 Sum of Mulliken charges =  -1.00000

 Dipole moment (field-independent basis, Debye):
    X=             -3.4490    Y=              0.7624    Z=             -4.8355  Tot=              5.9882
 Quadrupole moment (field-independent basis, Debye-Ang):
   XX=            -58.7985   YY=            -48.2688   ZZ=            -54.9579
   XY=              3.8042   XZ=              1.4933   YZ=             -4.5749

 Normal termination of Gaussian 16 at Tue Jan  7 22:59:29 2020.
