 Gaussian 16, Revision A.03,
 Gaussian 16:  AS64L-G16RevA.03 25-Dec-2016

 ----------------------------------------------------------------------
 #p opt=modredundant b3lyp/6-31+g(d) scrf=(smd, solvent=tetrahydrofuran
 )
 ----------------------------------------------------------------------

 -----
 title
 -----
 Symbolic Z-matrix:
 Charge = -1 Multiplicity = 1

 SCF Done:  E(RB3LYP) =  -706.394978403     A.U. after   14 cycles
 SCF Done:  E(RB3LYP) =  -706.420421041     A.U. after   13 cycles
 SCF Done:  E(RB3LYP) =  -706.429251061     A.U. after   13 cycles
 SCF Done:  E(RB3LYP) =  -706.430565345     A.U. after   12 cycles
 SCF Done:  E(RB3LYP) =  -706.430714203     A.U. after   11 cycles
 SCF Done:  E(RB3LYP) =  -706.430736208     A.U. after   10 cycles
 SCF Done:  E(RB3LYP) =  -706.430740762     A.U. after   10 cycles
 SCF Done:  E(RB3LYP) =  -706.430741354     A.U. after    8 cycles
 Optimization completed.
    -- Stationary point found.

                         Standard orientation:
 ---------------------------------------------------------------------
 Center     Atomic      Atomic             Coordinates (Angstroms)
 Number     Number       Type             X           Y           Z
 ---------------------------------------------------------------------
      1          6           0        0.262253    0.755312    0.225955
      2          8           0        0.218433    1.178300    1.344647
      3          6           0        0.017760    1.469053   -1.067706
      4          1           0       -0.077834    0.775249   -1.901800
      5          1           0       -0.883648    2.081537   -0.977456
      6          1           0        0.882808    2.126532   -1.238284
      7         17           0       -1.636520   -0.853322   -0.012703
      8          6           0        1.433456   -0.583402   -0.049955
      9          7           0        2.267319   -1.392718   -0.153349
 ---------------------------------------------------------------------

 The electronic state is 1-A.
 Alpha  occ. eigenvalues -- -101.43181 -19.15440 -14.32066 -10.32363 -10.21020
 Alpha  occ. eigenvalues --  -10.18412  -9.34618  -7.10534  -7.10317  -7.10307
 Alpha  occ. eigenvalues --   -1.06027  -0.88151  -0.74642  -0.68785  -0.56273
 Alpha  occ. eigenvalues --   -0.47952  -0.44007  -0.43802  -0.39313  -0.36498
 Alpha  occ. eigenvalues --   -0.36283  -0.32235  -0.32086  -0.27193  -0.23012
 Alpha  occ. eigenvalues --   -0.22625  -0.22566
 Alpha virt. eigenvalues --   -0.02177   0.02134   0.03230   0.04392   0.05375
 Alpha virt. eigenvalues --    0.06779   0.06870   0.08374   0.09505   0.09870
 Alpha virt. eigenvalues --    0.10428   0.10629   0.11285   0.13191   0.13739

 Mulliken charges:
               1
     1  C    0.331923
     2  O   -0.322124
     3  C   -0.635050
     4  H    0.257520
     5  H    0.256555
     6  H    0.253028
     7  Cl  -0.726392
     8  C    0.192488
     9  N   -0.607948
 Sum of Mulliken charges =  -1.00000

 Dipole moment (field-independent basis, Debye):
    X=              1.7070    Y=              6.4888    Z=             -2.7959  Tot=              7.2687
 Quadrupole moment (field-independent basis, Debye-Ang):
   XX=            -67.8155   YY=            -53.3135   ZZ=            -48.3087
   XY=              2.0213   XZ=              0.3463   YZ=             -5.1185

 Normal termination of Gaussian 16 at Wed Jan  8 01:20:50 2020.
