 Gaussian 16, Revision A.03,
 Gaussian 16:  AS64L-G16RevA.03 25-Dec-2016

 ----------------------------------------------------------------------
 #p opt=modredundant b3lyp/6-31+g(d) scrf=(smd, solvent=tetrahydrofuran
 )
 ----------------------------------------------------------------------

 -----
 title
 -----
 Symbolic Z-matrix:
 Charge = -1 Multiplicity = 1

 SCF Done:  E(RB3LYP) =  -706.371001434     A.U. after   14 cycles
 SCF Done:  E(RB3LYP) =  -706.400730841     A.U. after   13 cycles
 SCF Done:  E(RB3LYP) =  -706.405763604     A.U. after   12 cycles
 SCF Done:  E(RB3LYP) =  -706.407072156     A.U. after   12 cycles
 SCF Done:  E(RB3LYP) =  -706.407129597     A.U. after   10 cycles
 SCF Done:  E(RB3LYP) =  -706.407137181     A.U. after    9 cycles
 SCF Done:  E(RB3LYP) =  -706.407144534     A.U. after   11 cycles
 SCF Done:  E(RB3LYP) =  -706.407149482     A.U. after   10 cycles
 SCF Done:  E(RB3LYP) =  -706.407156347     A.U. after   11 cycles
 SCF Done:  E(RB3LYP) =  -706.407160622     A.U. after    9 cycles
 SCF Done:  E(RB3LYP) =  -706.407161095     A.U. after    9 cycles
 SCF Done:  E(RB3LYP) =  -706.407160952     A.U. after   10 cycles
 SCF Done:  E(RB3LYP) =  -706.407160565     A.U. after    9 cycles
 SCF Done:  E(RB3LYP) =  -706.407160700     A.U. after    9 cycles
 SCF Done:  E(RB3LYP) =  -706.407161292     A.U. after   10 cycles
 SCF Done:  E(RB3LYP) =  -706.407160918     A.U. after    9 cycles
 Optimization completed.
    -- Stationary point found.

                         Standard orientation:
 ---------------------------------------------------------------------
 Center     Atomic      Atomic             Coordinates (Angstroms)
 Number     Number       Type             X           Y           Z
 ---------------------------------------------------------------------
      1          6           0       -0.334626    0.733371    0.253517
      2          8           0       -0.338553    1.074605    1.372806
      3          6           0       -0.276341    1.403191   -1.072074
      4          1           0       -0.019549    0.701807   -1.861297
      5          1           0       -1.271369    1.828023   -1.259153
      6          1           0        0.465221    2.206100   -1.009839
      7         17           0       -1.489359   -1.107287   -0.090821
      8          6           0        1.923394   -0.302400   -0.026704
      9          7           0        2.996951   -0.787694   -0.033805
 ---------------------------------------------------------------------

 The electronic state is 1-A.
 Alpha  occ. eigenvalues -- -101.47895 -19.19793 -14.26911 -10.34443 -10.20138
 Alpha  occ. eigenvalues --  -10.13654  -9.39362  -7.15498  -7.14945  -7.14922
 Alpha  occ. eigenvalues --   -1.10505  -0.82577  -0.76998  -0.73064  -0.54120
 Alpha  occ. eigenvalues --   -0.46635  -0.46542  -0.46321  -0.39020  -0.38784
 Alpha  occ. eigenvalues --   -0.35648  -0.27784  -0.27433  -0.27318  -0.26537
 Alpha  occ. eigenvalues --   -0.26171  -0.24020
 Alpha virt. eigenvalues --   -0.03866  -0.00454   0.03022   0.04972   0.05496
 Alpha virt. eigenvalues --    0.05775   0.08031   0.08552   0.08972   0.09765
 Alpha virt. eigenvalues --    0.10357   0.11029   0.11208   0.12904   0.13538

 Mulliken charges:
               1
     1  C    0.176375
     2  O   -0.193714
     3  C   -0.550198
     4  H    0.284765
     5  H    0.269562
     6  H    0.270679
     7  Cl  -0.403345
     8  C   -0.187751
     9  N   -0.666375
 Sum of Mulliken charges =  -1.00000

 Dipole moment (field-independent basis, Debye):
    X=             -7.0923    Y=              6.7137    Z=             -2.5030  Tot=             10.0816
 Quadrupole moment (field-independent basis, Debye-Ang):
   XX=            -81.4252   YY=            -48.4933   ZZ=            -46.8233
   XY=              3.2563   XZ=              1.0394   YZ=             -4.1222

 Normal termination of Gaussian 16 at Wed Jan  8 00:57:25 2020.
