 Gaussian 16, Revision A.03,
 Gaussian 16:  AS64L-G16RevA.03 25-Dec-2016

 ----------------------------------------------------------------------
 #p opt=modredundant b3lyp/6-31+g(d) scrf=(smd, solvent=tetrahydrofuran
 )
 ----------------------------------------------------------------------

 -----
 title
 -----
 Symbolic Z-matrix:
 Charge = -1 Multiplicity = 1

 SCF Done:  E(RB3LYP) =  -706.377508566     A.U. after   13 cycles
 SCF Done:  E(RB3LYP) =  -706.403328939     A.U. after   13 cycles
 SCF Done:  E(RB3LYP) =  -706.407313438     A.U. after   12 cycles
 SCF Done:  E(RB3LYP) =  -706.408024881     A.U. after   12 cycles
 SCF Done:  E(RB3LYP) =  -706.408073910     A.U. after   10 cycles
 SCF Done:  E(RB3LYP) =  -706.408101376     A.U. after   11 cycles
 SCF Done:  E(RB3LYP) =  -706.408116169     A.U. after   11 cycles
 SCF Done:  E(RB3LYP) =  -706.408120357     A.U. after   10 cycles
 SCF Done:  E(RB3LYP) =  -706.408120550     A.U. after    9 cycles
 SCF Done:  E(RB3LYP) =  -706.408121355     A.U. after    9 cycles
 SCF Done:  E(RB3LYP) =  -706.408122240     A.U. after    9 cycles
 SCF Done:  E(RB3LYP) =  -706.408122858     A.U. after    9 cycles
 Optimization completed.
    -- Stationary point found.

                         Standard orientation:
 ---------------------------------------------------------------------
 Center     Atomic      Atomic             Coordinates (Angstroms)
 Number     Number       Type             X           Y           Z
 ---------------------------------------------------------------------
      1          6           0       -0.247031    0.717632    0.252730
      2          8           0       -0.300220    1.085296    1.370063
      3          6           0       -0.277486    1.417010   -1.065475
      4          1           0       -0.047820    0.738505   -1.883231
      5          1           0       -1.284924    1.832278   -1.193816
      6          1           0        0.454289    2.231426   -1.027105
      7         17           0       -1.431016   -1.105557   -0.085149
      8          6           0        1.795845   -0.300944   -0.028632
      9          7           0        2.854216   -0.813186   -0.051508
 ---------------------------------------------------------------------

 The electronic state is 1-A.
 Alpha  occ. eigenvalues -- -101.47159 -19.18035 -14.27823 -10.33594 -10.19515
 Alpha  occ. eigenvalues --  -10.14955  -9.38645  -7.14759  -7.14233  -7.14218
 Alpha  occ. eigenvalues --   -1.08797  -0.83569  -0.76217  -0.72383  -0.53430
 Alpha  occ. eigenvalues --   -0.46200  -0.45539  -0.45432  -0.38293  -0.38193
 Alpha  occ. eigenvalues --   -0.35757  -0.28528  -0.28255  -0.26683  -0.26277
 Alpha  occ. eigenvalues --   -0.25553  -0.24449
 Alpha virt. eigenvalues --   -0.03200   0.00729   0.03138   0.05091   0.05707
 Alpha virt. eigenvalues --    0.05918   0.07833   0.08425   0.09047   0.09880
 Alpha virt. eigenvalues --    0.10517   0.10748   0.11070   0.12928   0.13618

 Mulliken charges:
               1
     1  C    0.175996
     2  O   -0.220728
     3  C   -0.544360
     4  H    0.273605
     5  H    0.261813
     6  H    0.263207
     7  Cl  -0.429374
     8  C   -0.113489
     9  N   -0.666671
 Sum of Mulliken charges =  -1.00000

 Dipole moment (field-independent basis, Debye):
    X=             -5.4620    Y=              6.3341    Z=             -2.5391  Tot=              8.7408
 Quadrupole moment (field-independent basis, Debye-Ang):
   XX=            -76.7981   YY=            -49.3275   ZZ=            -47.3415
   XY=              2.8903   XZ=              1.1862   YZ=             -4.3042

 Normal termination of Gaussian 16 at Wed Jan  8 00:57:17 2020.
