 Gaussian 16, Revision A.03,
 Gaussian 16:  AS64L-G16RevA.03 25-Dec-2016

 ----------------------------------------------------------------------
 #p opt=modredundant b3lyp/6-31+g(d) scrf=(smd, solvent=tetrahydrofuran
 )
 ----------------------------------------------------------------------

 -----
 title
 -----
 Symbolic Z-matrix:
 Charge = -1 Multiplicity = 1

 SCF Done:  E(RB3LYP) =  -706.342831087     A.U. after   14 cycles
 SCF Done:  E(RB3LYP) =  -706.380964954     A.U. after   13 cycles
 SCF Done:  E(RB3LYP) =  -706.392189791     A.U. after   12 cycles
 SCF Done:  E(RB3LYP) =  -706.397319467     A.U. after   11 cycles
 SCF Done:  E(RB3LYP) =  -706.398202244     A.U. after   11 cycles
 SCF Done:  E(RB3LYP) =  -706.398325233     A.U. after   10 cycles
 SCF Done:  E(RB3LYP) =  -706.398349549     A.U. after   10 cycles
 SCF Done:  E(RB3LYP) =  -706.398359916     A.U. after    9 cycles
 SCF Done:  E(RB3LYP) =  -706.398379398     A.U. after   10 cycles
 SCF Done:  E(RB3LYP) =  -706.398323774     A.U. after   11 cycles
 SCF Done:  E(RB3LYP) =  -706.398408575     A.U. after   10 cycles
 SCF Done:  E(RB3LYP) =  -706.398410201     A.U. after    8 cycles
 SCF Done:  E(RB3LYP) =  -706.398412209     A.U. after    9 cycles
 SCF Done:  E(RB3LYP) =  -706.398416056     A.U. after    9 cycles
 SCF Done:  E(RB3LYP) =  -706.398419937     A.U. after    9 cycles
 SCF Done:  E(RB3LYP) =  -706.398423340     A.U. after    9 cycles
 SCF Done:  E(RB3LYP) =  -706.398424073     A.U. after    8 cycles
 SCF Done:  E(RB3LYP) =  -706.398426095     A.U. after    9 cycles
 SCF Done:  E(RB3LYP) =  -706.398428508     A.U. after    8 cycles
 SCF Done:  E(RB3LYP) =  -706.398430486     A.U. after    8 cycles
 Optimization completed.
    -- Stationary point found.

                         Standard orientation:
 ---------------------------------------------------------------------
 Center     Atomic      Atomic             Coordinates (Angstroms)
 Number     Number       Type             X           Y           Z
 ---------------------------------------------------------------------
      1          6           0       -0.273393    0.846874    0.264501
      2          8           0       -0.157894    1.046253    1.389676
      3          6           0       -0.140206    1.315173   -1.114407
      4          1           0        0.031170    0.478189   -1.787756
      5          1           0       -1.082156    1.815297   -1.371942
      6          1           0        0.698603    2.020558   -1.138530
      7         17           0       -1.959476   -0.969095   -0.066231
      8          6           0        2.285177   -0.478202   -0.063971
      9          7           0        3.385309   -0.901790   -0.029999
 ---------------------------------------------------------------------

 The electronic state is 1-A.
 Alpha  occ. eigenvalues -- -101.46224 -19.25656 -14.26490 -10.37850 -10.22684
 Alpha  occ. eigenvalues --  -10.13036  -9.37581  -7.13612  -7.13235  -7.13214
 Alpha  occ. eigenvalues --   -1.16157  -0.82090  -0.79578  -0.71409  -0.57166
 Alpha  occ. eigenvalues --   -0.50278  -0.49685  -0.49244  -0.41977  -0.41718
 Alpha  occ. eigenvalues --   -0.35643  -0.27075  -0.27052  -0.26344  -0.25150
 Alpha  occ. eigenvalues --   -0.24967  -0.23928
 Alpha virt. eigenvalues --   -0.06471  -0.04185   0.02482   0.04656   0.05057
 Alpha virt. eigenvalues --    0.05251   0.07656   0.07948   0.08719   0.09618
 Alpha virt. eigenvalues --    0.09842   0.11188   0.11451   0.12589   0.13191

 Mulliken charges:
               1
     1  C    0.500248
     2  O   -0.156188
     3  C   -0.680707
     4  H    0.325083
     5  H    0.301623
     6  H    0.297801
     7  Cl  -0.630319
     8  C   -0.300598
     9  N   -0.656943
 Sum of Mulliken charges =  -1.00000

 Dipole moment (field-independent basis, Debye):
    X=             -7.1268    Y=              9.3448    Z=             -2.3663  Tot=             11.9882
 Quadrupole moment (field-independent basis, Debye-Ang):
   XX=            -98.6950   YY=            -47.5958   ZZ=            -45.0257
   XY=              3.8614   XZ=              0.5365   YZ=             -3.8672

 Normal termination of Gaussian 16 at Wed Jan  8 01:44:21 2020.
