 Gaussian 16, Revision A.03,
 Gaussian 16:  AS64L-G16RevA.03 25-Dec-2016

 ----------------------------------------------------------------------
 #p opt=modredundant b3lyp/6-31+g(d) scrf=(smd, solvent=tetrahydrofuran
 )
 ----------------------------------------------------------------------

 -----
 title
 -----
 Symbolic Z-matrix:
 Charge = -1 Multiplicity = 1

 SCF Done:  E(RB3LYP) =  -706.360851060     A.U. after   15 cycles
 SCF Done:  E(RB3LYP) =  -706.394007787     A.U. after   13 cycles
 SCF Done:  E(RB3LYP) =  -706.405205097     A.U. after   13 cycles
 SCF Done:  E(RB3LYP) =  -706.409894670     A.U. after   12 cycles
 SCF Done:  E(RB3LYP) =  -706.410472556     A.U. after   11 cycles
 SCF Done:  E(RB3LYP) =  -706.410485436     A.U. after   11 cycles
 SCF Done:  E(RB3LYP) =  -706.410518505     A.U. after   10 cycles
 SCF Done:  E(RB3LYP) =  -706.410538611     A.U. after   10 cycles
 SCF Done:  E(RB3LYP) =  -706.410543887     A.U. after   10 cycles
 SCF Done:  E(RB3LYP) =  -706.410545106     A.U. after    9 cycles
 SCF Done:  E(RB3LYP) =  -706.410545368     A.U. after    9 cycles
 Optimization completed.
    -- Stationary point found.

                         Standard orientation:
 ---------------------------------------------------------------------
 Center     Atomic      Atomic             Coordinates (Angstroms)
 Number     Number       Type             X           Y           Z
 ---------------------------------------------------------------------
      1          6           0        0.282213    0.891647    0.233852
      2          8           0        0.180768    1.247128    1.338913
      3          6           0        0.083403    1.408453   -1.135341
      4          1           0       -0.034194    0.594185   -1.846073
      5          1           0       -0.795686    2.060292   -1.136989
      6          1           0        0.984518    1.988052   -1.380713
      7         17           0       -1.884556   -0.864534   -0.013012
      8          6           0        1.718266   -0.621130   -0.009575
      9          7           0        2.561911   -1.428043   -0.094278
 ---------------------------------------------------------------------

 The electronic state is 1-A.
 Alpha  occ. eigenvalues -- -101.42243 -19.21329 -14.30618 -10.35558 -10.20766
 Alpha  occ. eigenvalues --  -10.18813  -9.33604  -7.09459  -7.09344  -7.09338
 Alpha  occ. eigenvalues --   -1.11975  -0.86459  -0.77158  -0.67588  -0.55470
 Alpha  occ. eigenvalues --   -0.49240  -0.47633  -0.46690  -0.40272  -0.39601
 Alpha  occ. eigenvalues --   -0.37409  -0.30856  -0.30773  -0.28528  -0.22234
 Alpha  occ. eigenvalues --   -0.21884  -0.21860
 Alpha virt. eigenvalues --   -0.04276  -0.01356   0.02538   0.04693   0.04925
 Alpha virt. eigenvalues --    0.05837   0.06730   0.07564   0.08877   0.09937
 Alpha virt. eigenvalues --    0.10078   0.10301   0.10807   0.12735   0.13497

 Mulliken charges:
               1
     1  C    0.508708
     2  O   -0.215213
     3  C   -0.667231
     4  H    0.294135
     5  H    0.275850
     6  H    0.281421
     7  Cl  -0.843092
     8  C   -0.019584
     9  N   -0.614995
 Sum of Mulliken charges =  -1.00000

 Dipole moment (field-independent basis, Debye):
    X=              1.9568    Y=              9.1289    Z=             -2.6497  Tot=              9.7050
 Quadrupole moment (field-independent basis, Debye-Ang):
   XX=            -78.2779   YY=            -52.3854   ZZ=            -46.2391
   XY=              2.9936   XZ=              0.2657   YZ=             -4.6846

 Normal termination of Gaussian 16 at Wed Jan  8 02:00:45 2020.
