 Gaussian 16, Revision A.03,
 Gaussian 16:  AS64L-G16RevA.03 25-Dec-2016

 ----------------------------------------------------------------------
 #p opt=modredundant b3lyp/6-31+g(d) scrf=(smd, solvent=tetrahydrofuran
 )
 ----------------------------------------------------------------------

 -----
 title
 -----
 Symbolic Z-matrix:
 Charge = -1 Multiplicity = 1

 SCF Done:  E(RB3LYP) =  -706.379693865     A.U. after   14 cycles
 SCF Done:  E(RB3LYP) =  -706.411561544     A.U. after   13 cycles
 SCF Done:  E(RB3LYP) =  -706.428719637     A.U. after   13 cycles
 SCF Done:  E(RB3LYP) =  -706.433428839     A.U. after   12 cycles
 SCF Done:  E(RB3LYP) =  -706.433958728     A.U. after   11 cycles
 SCF Done:  E(RB3LYP) =  -706.433994733     A.U. after   11 cycles
 SCF Done:  E(RB3LYP) =  -706.434060213     A.U. after   10 cycles
 SCF Done:  E(RB3LYP) =  -706.434065455     A.U. after   10 cycles
 SCF Done:  E(RB3LYP) =  -706.434065861     A.U. after   10 cycles
 SCF Done:  E(RB3LYP) =  -706.434064275     A.U. after    9 cycles
 SCF Done:  E(RB3LYP) =  -706.434063370     A.U. after    9 cycles
 SCF Done:  E(RB3LYP) =  -706.434065777     A.U. after   10 cycles
 SCF Done:  E(RB3LYP) =  -706.434063290     A.U. after   10 cycles
 Optimization completed.
    -- Stationary point found.

                         Standard orientation:
 ---------------------------------------------------------------------
 Center     Atomic      Atomic             Coordinates (Angstroms)
 Number     Number       Type             X           Y           Z
 ---------------------------------------------------------------------
      1          6           0        0.674634    0.757605    0.208687
      2          8           0        0.693822    1.164833    1.322399
      3          6           0        0.443070    1.425374   -1.097950
      4          1           0       -0.037227    0.745602   -1.801245
      5          1           0       -0.164628    2.321574   -0.947980
      6          1           0        1.429205    1.710476   -1.493093
      7         17           0       -2.045462   -0.494230    0.024314
      8          6           0        1.351932   -0.890212   -0.048155
      9          7           0        1.882444   -1.921574   -0.160815
 ---------------------------------------------------------------------

 The electronic state is 1-A.
 Alpha  occ. eigenvalues -- -101.41460 -19.18508 -14.33102 -10.33937 -10.22099
 Alpha  occ. eigenvalues --  -10.19377  -9.32804  -7.08618  -7.08567  -7.08562
 Alpha  occ. eigenvalues --   -1.08974  -0.89099  -0.75989  -0.66748  -0.57638
 Alpha  occ. eigenvalues --   -0.49755  -0.45959  -0.45285  -0.40298  -0.38040
 Alpha  occ. eigenvalues --   -0.37305  -0.33083  -0.32961  -0.29063  -0.21379
 Alpha  occ. eigenvalues --   -0.21231  -0.21212
 Alpha virt. eigenvalues --   -0.04064   0.01521   0.02765   0.03596   0.05192
 Alpha virt. eigenvalues --    0.06525   0.06636   0.08002   0.09204   0.09595
 Alpha virt. eigenvalues --    0.10185   0.10498   0.10686   0.13026   0.13408

 Mulliken charges:
               1
     1  C    0.509898
     2  O   -0.303151
     3  C   -0.721513
     4  H    0.278263
     5  H    0.261277
     6  H    0.270184
     7  Cl  -0.905341
     8  C    0.183914
     9  N   -0.573530
 Sum of Mulliken charges =  -1.00000

 Dipole moment (field-independent basis, Debye):
    X=              6.3084    Y=              6.8908    Z=             -2.8944  Tot=              9.7805
 Quadrupole moment (field-independent basis, Debye-Ang):
   XX=            -71.8686   YY=            -54.7331   ZZ=            -47.4233
   XY=              3.5292   XZ=             -0.9508   YZ=             -5.0257

 Normal termination of Gaussian 16 at Wed Jan  8 02:29:19 2020.
