 Gaussian 16, Revision A.03,
 Gaussian 16:  AS64L-G16RevA.03 25-Dec-2016

 ----------------------------------------------------------------------
 #p opt=modredundant b3lyp/6-31+g(d) scrf=(smd, solvent=tetrahydrofuran
 )
 ----------------------------------------------------------------------

 -----
 title
 -----
 Symbolic Z-matrix:
 Charge = -1 Multiplicity = 1

 SCF Done:  E(RB3LYP) =  -706.383094860     A.U. after   14 cycles
 SCF Done:  E(RB3LYP) =  -706.395431266     A.U. after   12 cycles
 SCF Done:  E(RB3LYP) =  -706.396561893     A.U. after   12 cycles
 SCF Done:  E(RB3LYP) =  -706.396649113     A.U. after   11 cycles
 SCF Done:  E(RB3LYP) =  -706.396667067     A.U. after   10 cycles
 SCF Done:  E(RB3LYP) =  -706.396676052     A.U. after   10 cycles
 SCF Done:  E(RB3LYP) =  -706.396693931     A.U. after   11 cycles
 SCF Done:  E(RB3LYP) =  -706.396702713     A.U. after   10 cycles
 SCF Done:  E(RB3LYP) =  -706.396704151     A.U. after    9 cycles
 SCF Done:  E(RB3LYP) =  -706.396705027     A.U. after    9 cycles
 SCF Done:  E(RB3LYP) =  -706.396705717     A.U. after    9 cycles
 SCF Done:  E(RB3LYP) =  -706.396706072     A.U. after    9 cycles
 Optimization completed.
    -- Stationary point found.

                         Standard orientation:
 ---------------------------------------------------------------------
 Center     Atomic      Atomic             Coordinates (Angstroms)
 Number     Number       Type             X           Y           Z
 ---------------------------------------------------------------------
      1          6           0       -0.404552    0.415138    0.245679
      2          8           0       -0.401282    0.745034    1.424668
      3          6           0       -0.421232    1.441830   -0.877210
      4          1           0       -0.152329    1.009187   -1.842670
      5          1           0       -1.441233    1.849172   -0.938098
      6          1           0        0.267841    2.252970   -0.629344
      7         17           0       -1.186840   -1.032536   -0.181248
      8          6           0        1.665344   -0.221887   -0.141272
      9          7           0        2.810700   -0.475569   -0.038457
 ---------------------------------------------------------------------

 The electronic state is 1-A.
 Alpha  occ. eigenvalues -- -101.52192 -19.11130 -14.27120 -10.30229 -10.16848
 Alpha  occ. eigenvalues --  -10.13882  -9.44074  -7.20367  -7.19537  -7.19474
 Alpha  occ. eigenvalues --   -1.02332  -0.84026  -0.82836  -0.71177  -0.52984
 Alpha  occ. eigenvalues --   -0.45041  -0.44359  -0.42198  -0.37464  -0.36528
 Alpha  occ. eigenvalues --   -0.34270  -0.29746  -0.29412  -0.27568  -0.27061
 Alpha  occ. eigenvalues --   -0.24386  -0.23067
 Alpha virt. eigenvalues --    0.00177   0.03039   0.04945   0.05741   0.06252
 Alpha virt. eigenvalues --    0.07071   0.08473   0.08937   0.09379   0.09778
 Alpha virt. eigenvalues --    0.10609   0.10990   0.12221   0.13748   0.13835

 Mulliken charges:
               1
     1  C   -0.194955
     2  O   -0.367408
     3  C   -0.458063
     4  H    0.237585
     5  H    0.229237
     6  H    0.241004
     7  Cl   0.105870
     8  C   -0.101707
     9  N   -0.691562
 Sum of Mulliken charges =  -1.00000

 Dipole moment (field-independent basis, Debye):
    X=             -7.6934    Y=              2.1163    Z=             -3.0383  Tot=              8.5381
 Quadrupole moment (field-independent basis, Debye-Ang):
   XX=            -72.5365   YY=            -46.5569   ZZ=            -50.4159
   XY=              3.5967   XZ=              1.9590   YZ=             -3.4132

 Normal termination of Gaussian 16 at Tue Jan  7 23:25:50 2020.
