 Gaussian 16, Revision A.03,
 Gaussian 16:  AS64L-G16RevA.03 25-Dec-2016

 ----------------------------------------------------------------------
 #p opt=modredundant b3lyp/6-31+g(d) scrf=(smd, solvent=tetrahydrofuran
 )
 ----------------------------------------------------------------------

 -----
 title
 -----
 Symbolic Z-matrix:
 Charge = -1 Multiplicity = 1

 SCF Done:  E(RB3LYP) =  -706.333951733     A.U. after   15 cycles
 SCF Done:  E(RB3LYP) =  -706.373117825     A.U. after   13 cycles
 SCF Done:  E(RB3LYP) =  -706.386084725     A.U. after   12 cycles
 SCF Done:  E(RB3LYP) =  -706.392160310     A.U. after   11 cycles
 SCF Done:  E(RB3LYP) =  -706.393479665     A.U. after   11 cycles
 SCF Done:  E(RB3LYP) =  -706.393546169     A.U. after   10 cycles
 SCF Done:  E(RB3LYP) =  -706.393588717     A.U. after   10 cycles
 SCF Done:  E(RB3LYP) =  -706.393621860     A.U. after   10 cycles
 SCF Done:  E(RB3LYP) =  -706.393677556     A.U. after   10 cycles
 SCF Done:  E(RB3LYP) =  -706.393490132     A.U. after   11 cycles
 SCF Done:  E(RB3LYP) =  -706.393724606     A.U. after   11 cycles
 SCF Done:  E(RB3LYP) =  -706.393686239     A.U. after   10 cycles
 SCF Done:  E(RB3LYP) =  -706.393713186     A.U. after   11 cycles
 SCF Done:  E(RB3LYP) =  -706.393735317     A.U. after   10 cycles
 SCF Done:  E(RB3LYP) =  -706.393737428     A.U. after    8 cycles
 SCF Done:  E(RB3LYP) =  -706.393739076     A.U. after    9 cycles
 SCF Done:  E(RB3LYP) =  -706.393741790     A.U. after    9 cycles
 SCF Done:  E(RB3LYP) =  -706.393742703     A.U. after    8 cycles
 SCF Done:  E(RB3LYP) =  -706.393744256     A.U. after    8 cycles
 SCF Done:  E(RB3LYP) =  -706.393745690     A.U. after    8 cycles
 Optimization completed.
    -- Stationary point found.

                         Standard orientation:
 ---------------------------------------------------------------------
 Center     Atomic      Atomic             Coordinates (Angstroms)
 Number     Number       Type             X           Y           Z
 ---------------------------------------------------------------------
      1          6           0       -0.119996    0.907089    0.244147
      2          8           0       -0.074498    1.110654    1.367024
      3          6           0       -0.042636    1.254851   -1.165098
      4          1           0        0.069145    0.360707   -1.774660
      5          1           0       -0.976364    1.773867   -1.415103
      6          1           0        0.823749    1.918776   -1.277811
      7         17           0       -2.084949   -0.922812   -0.039447
      8          6           0        2.284437   -0.506858    0.000319
      9          7           0        3.341822   -1.025895   -0.039176
 ---------------------------------------------------------------------

 The electronic state is 1-A.
 Alpha  occ. eigenvalues -- -101.44449 -19.27217 -14.26897 -10.38977 -10.23449
 Alpha  occ. eigenvalues --  -10.13553  -9.35789  -7.11733  -7.11488  -7.11475
 Alpha  occ. eigenvalues --   -1.17760  -0.82514  -0.80568  -0.69635  -0.58088
 Alpha  occ. eigenvalues --   -0.51276  -0.50805  -0.50246  -0.42856  -0.42585
 Alpha  occ. eigenvalues --   -0.35992  -0.27442  -0.27424  -0.24848  -0.24345
 Alpha  occ. eigenvalues --   -0.23618  -0.23593
 Alpha virt. eigenvalues --   -0.07021  -0.04713   0.02225   0.04651   0.04985
 Alpha virt. eigenvalues --    0.05122   0.07462   0.07775   0.08639   0.09630
 Alpha virt. eigenvalues --    0.09838   0.11047   0.11321   0.12471   0.13187

 Mulliken charges:
               1
     1  C    0.550516
     2  O   -0.146957
     3  C   -0.660733
     4  H    0.336415
     5  H    0.309858
     6  H    0.308068
     7  Cl  -0.750474
     8  C   -0.289829
     9  N   -0.656865
 Sum of Mulliken charges =  -1.00000

 Dipole moment (field-independent basis, Debye):
    X=             -4.8040    Y=             10.3479    Z=             -2.6531  Tot=             11.7131
 Quadrupole moment (field-independent basis, Debye-Ang):
   XX=           -101.2203   YY=            -48.4136   ZZ=            -44.3196
   XY=              4.0039   XZ=              0.2672   YZ=             -3.8968

 Normal termination of Gaussian 16 at Wed Jan  8 02:04:07 2020.
