 Gaussian 16, Revision A.03,
 Gaussian 16:  AS64L-G16RevA.03 25-Dec-2016

 ----------------------------------------------------------------------
 #p opt=modredundant b3lyp/6-31+g(d) scrf=(smd, solvent=tetrahydrofuran
 )
 ----------------------------------------------------------------------

 -----
 title
 -----
 Symbolic Z-matrix:
 Charge = -1 Multiplicity = 1

 SCF Done:  E(RB3LYP) =  -706.362378328     A.U. after   14 cycles
 SCF Done:  E(RB3LYP) =  -706.394345890     A.U. after   12 cycles
 SCF Done:  E(RB3LYP) =  -706.401472505     A.U. after   12 cycles
 SCF Done:  E(RB3LYP) =  -706.403612911     A.U. after   11 cycles
 SCF Done:  E(RB3LYP) =  -706.403717387     A.U. after   11 cycles
 SCF Done:  E(RB3LYP) =  -706.403738750     A.U. after   11 cycles
 SCF Done:  E(RB3LYP) =  -706.403758894     A.U. after   10 cycles
 SCF Done:  E(RB3LYP) =  -706.403782642     A.U. after   10 cycles
 SCF Done:  E(RB3LYP) =  -706.403793511     A.U. after   10 cycles
 SCF Done:  E(RB3LYP) =  -706.403796927     A.U. after    9 cycles
 SCF Done:  E(RB3LYP) =  -706.403797797     A.U. after    8 cycles
 SCF Done:  E(RB3LYP) =  -706.403798100     A.U. after    8 cycles
 Optimization completed.
    -- Stationary point found.

                         Standard orientation:
 ---------------------------------------------------------------------
 Center     Atomic      Atomic             Coordinates (Angstroms)
 Number     Number       Type             X           Y           Z
 ---------------------------------------------------------------------
      1          6           0       -0.046383    0.847315    0.245935
      2          8           0       -0.113974    1.200550    1.352540
      3          6           0       -0.115701    1.394549   -1.127186
      4          1           0       -0.016970    0.608691   -1.870514
      5          1           0       -1.080265    1.904645   -1.230742
      6          1           0        0.705242    2.116470   -1.222355
      7         17           0       -1.677798   -1.024573   -0.044790
      8          6           0        1.838310   -0.447622   -0.001182
      9          7           0        2.824144   -1.083132   -0.062953
 ---------------------------------------------------------------------

 The electronic state is 1-A.
 Alpha  occ. eigenvalues -- -101.44523 -19.21280 -14.28596 -10.35416 -10.20843
 Alpha  occ. eigenvalues --  -10.16038  -9.35916  -7.11894  -7.11586  -7.11579
 Alpha  occ. eigenvalues --   -1.11933  -0.84352  -0.77069  -0.69902  -0.54888
 Alpha  occ. eigenvalues --   -0.47888  -0.47529  -0.46674  -0.39819  -0.39498
 Alpha  occ. eigenvalues --   -0.36679  -0.29037  -0.28956  -0.26650  -0.24408
 Alpha  occ. eigenvalues --   -0.23631  -0.23537
 Alpha virt. eigenvalues --   -0.04952  -0.00858   0.02746   0.04991   0.05307
 Alpha virt. eigenvalues --    0.05698   0.07343   0.08016   0.08923   0.09954
 Alpha virt. eigenvalues --    0.10239   0.10553   0.11015   0.12745   0.13529

 Mulliken charges:
               1
     1  C    0.353700
     2  O   -0.181858
     3  C   -0.586556
     4  H    0.293016
     5  H    0.276840
     6  H    0.278431
     7  Cl  -0.670078
     8  C   -0.116470
     9  N   -0.647026
 Sum of Mulliken charges =  -1.00000

 Dipole moment (field-independent basis, Debye):
    X=             -2.7308    Y=              8.5981    Z=             -2.5547  Tot=              9.3761
 Quadrupole moment (field-independent basis, Debye-Ang):
   XX=            -79.9575   YY=            -50.6040   ZZ=            -46.1533
   XY=              2.9300   XZ=              0.7078   YZ=             -4.4524

 Normal termination of Gaussian 16 at Wed Jan  8 01:28:16 2020.
