 Gaussian 16, Revision A.03,
 Gaussian 16:  AS64L-G16RevA.03 25-Dec-2016

 ----------------------------------------------------------------------
 #p opt=modredundant b3lyp/6-31+g(d) scrf=(smd, solvent=tetrahydrofuran
 )
 ----------------------------------------------------------------------

 -----
 title
 -----
 Symbolic Z-matrix:
 Charge = -1 Multiplicity = 1

 SCF Done:  E(RB3LYP) =  -706.396553836     A.U. after   14 cycles
 SCF Done:  E(RB3LYP) =  -706.424411446     A.U. after   13 cycles
 SCF Done:  E(RB3LYP) =  -706.438526235     A.U. after   13 cycles
 SCF Done:  E(RB3LYP) =  -706.440740921     A.U. after   12 cycles
 SCF Done:  E(RB3LYP) =  -706.440987431     A.U. after   11 cycles
 SCF Done:  E(RB3LYP) =  -706.441032959     A.U. after   10 cycles
 SCF Done:  E(RB3LYP) =  -706.441079578     A.U. after   11 cycles
 SCF Done:  E(RB3LYP) =  -706.441084133     A.U. after    9 cycles
 SCF Done:  E(RB3LYP) =  -706.441084997     A.U. after    9 cycles
 Optimization completed.
    -- Stationary point found.

                         Standard orientation:
 ---------------------------------------------------------------------
 Center     Atomic      Atomic             Coordinates (Angstroms)
 Number     Number       Type             X           Y           Z
 ---------------------------------------------------------------------
      1          6           0        0.534519    0.706201    0.209241
      2          8           0        0.576849    1.131210    1.331330
      3          6           0        0.321079    1.459946   -1.065414
      4          1           0        0.012449    0.803589   -1.878524
      5          1           0       -0.422751    2.244478   -0.905590
      6          1           0        1.282858    1.927462   -1.325408
      7         17           0       -1.838756   -0.566702    0.016148
      8          6           0        1.258356   -0.808175   -0.060434
      9          7           0        1.869684   -1.791300   -0.187997
 ---------------------------------------------------------------------

 The electronic state is 1-A.
 Alpha  occ. eigenvalues -- -101.42247 -19.15901 -14.33131 -10.32353 -10.22342
 Alpha  occ. eigenvalues --  -10.18389  -9.33639  -7.09500  -7.09373  -7.09364
 Alpha  occ. eigenvalues --   -1.06293  -0.89271  -0.74856  -0.67730  -0.58658
 Alpha  occ. eigenvalues --   -0.48544  -0.44350  -0.44026  -0.39609  -0.36899
 Alpha  occ. eigenvalues --   -0.36674  -0.33062  -0.32953  -0.27553  -0.22148
 Alpha  occ. eigenvalues --   -0.21890  -0.21865
 Alpha virt. eigenvalues --   -0.03355   0.02308   0.03509   0.03710   0.05480
 Alpha virt. eigenvalues --    0.06758   0.06904   0.08586   0.09641   0.10026
 Alpha virt. eigenvalues --    0.10574   0.10719   0.11490   0.13361   0.13689

 Mulliken charges:
               1
     1  C    0.363032
     2  O   -0.337987
     3  C   -0.666233
     4  H    0.258758
     5  H    0.258121
     6  H    0.256353
     7  Cl  -0.817328
     8  C    0.268324
     9  N   -0.583040
 Sum of Mulliken charges =  -1.00000

 Dipole moment (field-independent basis, Debye):
    X=              4.4823    Y=              6.0754    Z=             -2.8884  Tot=              8.0835
 Quadrupole moment (field-independent basis, Debye-Ang):
   XX=            -67.2046   YY=            -54.4428   ZZ=            -48.3106
   XY=              2.6577   XZ=             -0.7243   YZ=             -5.1645

 Normal termination of Gaussian 16 at Wed Jan  8 01:48:33 2020.
