 Gaussian 16, Revision A.03,
 Gaussian 16:  AS64L-G16RevA.03 25-Dec-2016

 ----------------------------------------------------------------------
 #p opt=modredundant b3lyp/6-31+g(d) scrf=(smd, solvent=tetrahydrofuran
 )
 ----------------------------------------------------------------------

 -----
 title
 -----
 Symbolic Z-matrix:
 Charge = -1 Multiplicity = 1

 SCF Done:  E(RB3LYP) =  -706.335404422     A.U. after   14 cycles
 SCF Done:  E(RB3LYP) =  -706.373732387     A.U. after   13 cycles
 SCF Done:  E(RB3LYP) =  -706.386923181     A.U. after   12 cycles
 SCF Done:  E(RB3LYP) =  -706.393224448     A.U. after   12 cycles
 SCF Done:  E(RB3LYP) =  -706.394711995     A.U. after   11 cycles
 SCF Done:  E(RB3LYP) =  -706.394845944     A.U. after   11 cycles
 SCF Done:  E(RB3LYP) =  -706.394389359     A.U. after   11 cycles
 SCF Done:  E(RB3LYP) =  -706.394893120     A.U. after   11 cycles
 SCF Done:  E(RB3LYP) =  -706.394927045     A.U. after   10 cycles
 SCF Done:  E(RB3LYP) =  -706.394943728     A.U. after   10 cycles
 SCF Done:  E(RB3LYP) =  -706.394946125     A.U. after   10 cycles
 SCF Done:  E(RB3LYP) =  -706.394948063     A.U. after    9 cycles
 SCF Done:  E(RB3LYP) =  -706.394950186     A.U. after    9 cycles
 SCF Done:  E(RB3LYP) =  -706.394950764     A.U. after    8 cycles
 Optimization completed.
    -- Stationary point found.

                         Standard orientation:
 ---------------------------------------------------------------------
 Center     Atomic      Atomic             Coordinates (Angstroms)
 Number     Number       Type             X           Y           Z
 ---------------------------------------------------------------------
      1          6           0        0.126198    0.959325    0.231009
      2          8           0        0.055366    1.213814    1.344511
      3          6           0        0.037948    1.281484   -1.186590
      4          1           0        0.020162    0.373655   -1.784771
      5          1           0       -0.879798    1.864782   -1.328488
      6          1           0        0.927220    1.879728   -1.424888
      7         17           0       -2.088044   -0.897297   -0.014115
      8          6           0        2.094456   -0.566318    0.011070
      9          7           0        3.062088   -1.231652   -0.044417
 ---------------------------------------------------------------------

 The electronic state is 1-A.
 Alpha  occ. eigenvalues -- -101.42644 -19.26526 -14.28310 -10.38657 -10.23116
 Alpha  occ. eigenvalues --  -10.15510  -9.33984  -7.09843  -7.09725  -7.09718
 Alpha  occ. eigenvalues --   -1.17109  -0.83994  -0.80120  -0.67896  -0.57717
 Alpha  occ. eigenvalues --   -0.50892  -0.50567  -0.49881  -0.42497  -0.42213
 Alpha  occ. eigenvalues --   -0.37054  -0.28720  -0.28695  -0.26388  -0.22703
 Alpha  occ. eigenvalues --   -0.22227  -0.22197
 Alpha virt. eigenvalues --   -0.06669  -0.04204   0.02188   0.04716   0.04841
 Alpha virt. eigenvalues --    0.05260   0.07128   0.07617   0.08609   0.09714
 Alpha virt. eigenvalues --    0.09940   0.10598   0.10996   0.12536   0.13343

 Mulliken charges:
               1
     1  C    0.532595
     2  O   -0.147663
     3  C   -0.637043
     4  H    0.330863
     5  H    0.302696
     6  H    0.307054
     7  Cl  -0.849474
     8  C   -0.197484
     9  N   -0.641544
 Sum of Mulliken charges =  -1.00000

 Dipole moment (field-independent basis, Debye):
    X=             -0.8786    Y=             10.8278    Z=             -2.7898  Tot=             11.2159
 Quadrupole moment (field-independent basis, Debye-Ang):
   XX=            -94.3552   YY=            -50.0992   ZZ=            -44.4396
   XY=              3.7979   XZ=              0.1916   YZ=             -4.0917

 Normal termination of Gaussian 16 at Wed Jan  8 02:19:36 2020.
