 Gaussian 16, Revision A.03,
 Gaussian 16:  AS64L-G16RevA.03 25-Dec-2016

 ----------------------------------------------------------------------
 #p opt=modredundant b3lyp/6-31+g(d) scrf=(smd, solvent=tetrahydrofuran
 )
 ----------------------------------------------------------------------

 -----
 title
 -----
 Symbolic Z-matrix:
 Charge = -1 Multiplicity = 1

 SCF Done:  E(RB3LYP) =  -706.402914716     A.U. after   13 cycles
 SCF Done:  E(RB3LYP) =  -706.411370341     A.U. after   12 cycles
 SCF Done:  E(RB3LYP) =  -706.412165551     A.U. after   12 cycles
 SCF Done:  E(RB3LYP) =  -706.412227142     A.U. after   11 cycles
 SCF Done:  E(RB3LYP) =  -706.412230707     A.U. after   10 cycles
 SCF Done:  E(RB3LYP) =  -706.412231412     A.U. after    9 cycles
 SCF Done:  E(RB3LYP) =  -706.412231222     A.U. after    9 cycles
 SCF Done:  E(RB3LYP) =  -706.412231159     A.U. after    9 cycles
 Optimization completed.
    -- Stationary point found.

                         Standard orientation:
 ---------------------------------------------------------------------
 Center     Atomic      Atomic             Coordinates (Angstroms)
 Number     Number       Type             X           Y           Z
 ---------------------------------------------------------------------
      1          6           0       -0.186498    0.502878    0.242582
      2          8           0       -0.261924    0.907320    1.400052
      3          6           0       -0.340553    1.430663   -0.955591
      4          1           0       -0.156394    0.918615   -1.902902
      5          1           0       -1.360765    1.833968   -0.951352
      6          1           0        0.367171    2.259572   -0.843507
      7         17           0       -1.239319   -1.036613   -0.120101
      8          6           0        1.521642   -0.263276   -0.081865
      9          7           0        2.620894   -0.667127   -0.098813
 ---------------------------------------------------------------------

 The electronic state is 1-A.
 Alpha  occ. eigenvalues -- -101.48842 -19.09710 -14.29709 -10.30086 -10.17680
 Alpha  occ. eigenvalues --  -10.16735  -9.40557  -7.16767  -7.16064  -7.16048
 Alpha  occ. eigenvalues --   -1.00642  -0.85734  -0.78425  -0.70837  -0.53282
 Alpha  occ. eigenvalues --   -0.45549  -0.42957  -0.40630  -0.37498  -0.36194
 Alpha  occ. eigenvalues --   -0.34294  -0.30676  -0.29898  -0.27274  -0.26748
 Alpha  occ. eigenvalues --   -0.23883  -0.22907
 Alpha virt. eigenvalues --    0.01424   0.02858   0.04386   0.05614   0.05862
 Alpha virt. eigenvalues --    0.07358   0.07514   0.08506   0.09520   0.10118
 Alpha virt. eigenvalues --    0.10416   0.10510   0.12497   0.13513   0.13896

 Mulliken charges:
               1
     1  C    0.117789
     2  O   -0.422862
     3  C   -0.579411
     4  H    0.232373
     5  H    0.231952
     6  H    0.234133
     7  Cl  -0.210340
     8  C    0.067668
     9  N   -0.671302
 Sum of Mulliken charges =  -1.00000

 Dipole moment (field-independent basis, Debye):
    X=             -3.9724    Y=              2.7918    Z=             -3.2066  Tot=              5.8186
 Quadrupole moment (field-independent basis, Debye-Ang):
   XX=            -67.2518   YY=            -49.2860   ZZ=            -50.5705
   XY=              2.9511   XZ=              1.7480   YZ=             -4.5192

 Normal termination of Gaussian 16 at Wed Jan  8 00:03:27 2020.
