 Gaussian 16, Revision A.03,
 Gaussian 16:  AS64L-G16RevA.03 25-Dec-2016

 ----------------------------------------------------------------------
 #p opt=modredundant b3lyp/6-31+g(d) scrf=(smd, solvent=tetrahydrofuran
 )
 ----------------------------------------------------------------------

 -----
 title
 -----
 Symbolic Z-matrix:
 Charge = -1 Multiplicity = 1

 SCF Done:  E(RB3LYP) =  -706.327434061     A.U. after   15 cycles
 SCF Done:  E(RB3LYP) =  -706.367210811     A.U. after   13 cycles
 SCF Done:  E(RB3LYP) =  -706.381934498     A.U. after   12 cycles
 SCF Done:  E(RB3LYP) =  -706.389464187     A.U. after   12 cycles
 SCF Done:  E(RB3LYP) =  -706.391638344     A.U. after   11 cycles
 SCF Done:  E(RB3LYP) =  -706.391894810     A.U. after   11 cycles
 SCF Done:  E(RB3LYP) =  -706.391816397     A.U. after   11 cycles
 SCF Done:  E(RB3LYP) =  -706.392028174     A.U. after   11 cycles
 SCF Done:  E(RB3LYP) =  -706.392133441     A.U. after   10 cycles
 SCF Done:  E(RB3LYP) =  -706.392300460     A.U. after   11 cycles
 SCF Done:  E(RB3LYP) =  -706.392335168     A.U. after   10 cycles
 SCF Done:  E(RB3LYP) =  -706.392346814     A.U. after   10 cycles
 SCF Done:  E(RB3LYP) =  -706.392348246     A.U. after    9 cycles
 SCF Done:  E(RB3LYP) =  -706.392348618     A.U. after    8 cycles
 SCF Done:  E(RB3LYP) =  -706.392349067     A.U. after    8 cycles
 Optimization completed.
    -- Stationary point found.

                         Standard orientation:
 ---------------------------------------------------------------------
 Center     Atomic      Atomic             Coordinates (Angstroms)
 Number     Number       Type             X           Y           Z
 ---------------------------------------------------------------------
      1          6           0        0.144113    0.938651    0.224568
      2          8           0        0.072005    1.151183    1.341609
      3          6           0        0.076290    1.184539   -1.201386
      4          1           0        0.060551    0.242543   -1.746843
      5          1           0       -0.839502    1.760123   -1.384158
      6          1           0        0.972705    1.761714   -1.462548
      7         17           0       -2.265141   -0.833406   -0.010610
      8          6           0        2.267330   -0.548466    0.023496
      9          7           0        3.258744   -1.179185   -0.034146
 ---------------------------------------------------------------------

 The electronic state is 1-A.
 Alpha  occ. eigenvalues -- -101.42432 -19.28028 -14.27983 -10.39634 -10.23804
 Alpha  occ. eigenvalues --  -10.15000  -9.33766  -7.09607  -7.09519  -7.09511
 Alpha  occ. eigenvalues --   -1.18603  -0.83644  -0.81122  -0.67669  -0.58620
 Alpha  occ. eigenvalues --   -0.51839  -0.51479  -0.50942  -0.43290  -0.43020
 Alpha  occ. eigenvalues --   -0.36877  -0.28427  -0.28409  -0.25976  -0.22502
 Alpha  occ. eigenvalues --   -0.22091  -0.22051
 Alpha virt. eigenvalues --   -0.07059  -0.05128   0.02001   0.04613   0.04735
 Alpha virt. eigenvalues --    0.05114   0.07096   0.07468   0.08530   0.09635
 Alpha virt. eigenvalues --    0.09881   0.10667   0.10975   0.12402   0.13231

 Mulliken charges:
               1
     1  C    0.638389
     2  O   -0.157529
     3  C   -0.675914
     4  H    0.342983
     5  H    0.311785
     6  H    0.315294
     7  Cl  -0.881714
     8  C   -0.246277
     9  N   -0.647017
 Sum of Mulliken charges =  -1.00000

 Dipole moment (field-independent basis, Debye):
    X=             -0.9053    Y=             10.8176    Z=             -2.9118  Tot=             11.2392
 Quadrupole moment (field-independent basis, Debye-Ang):
   XX=           -103.3906   YY=            -49.4363   ZZ=            -43.9589
   XY=              4.1326   XZ=             -0.0200   YZ=             -3.7764

 Normal termination of Gaussian 16 at Wed Jan  8 02:31:15 2020.
