 Gaussian 16, Revision A.03,
 Gaussian 16:  AS64L-G16RevA.03 25-Dec-2016

 ----------------------------------------------------------------------
 #p opt=modredundant b3lyp/6-31+g(d) scrf=(smd, solvent=tetrahydrofuran
 )
 ----------------------------------------------------------------------

 -----
 title
 -----
 Symbolic Z-matrix:
 Charge = -1 Multiplicity = 1

 SCF Done:  E(RB3LYP) =  -706.371991107     A.U. after   14 cycles
 SCF Done:  E(RB3LYP) =  -706.400630296     A.U. after   12 cycles
 SCF Done:  E(RB3LYP) =  -706.406125006     A.U. after   12 cycles
 SCF Done:  E(RB3LYP) =  -706.407480581     A.U. after   11 cycles
 SCF Done:  E(RB3LYP) =  -706.407575947     A.U. after   11 cycles
 SCF Done:  E(RB3LYP) =  -706.407651095     A.U. after   11 cycles
 SCF Done:  E(RB3LYP) =  -706.407680303     A.U. after   10 cycles
 SCF Done:  E(RB3LYP) =  -706.407691688     A.U. after   10 cycles
 SCF Done:  E(RB3LYP) =  -706.407693369     A.U. after    9 cycles
 SCF Done:  E(RB3LYP) =  -706.407693444     A.U. after    9 cycles
 Optimization completed.
    -- Stationary point found.

                         Standard orientation:
 ---------------------------------------------------------------------
 Center     Atomic      Atomic             Coordinates (Angstroms)
 Number     Number       Type             X           Y           Z
 ---------------------------------------------------------------------
      1          6           0       -0.068805    0.801596    0.247765
      2          8           0       -0.147354    1.175583    1.356100
      3          6           0       -0.166833    1.418446   -1.102134
      4          1           0       -0.048626    0.676169   -1.887041
      5          1           0       -1.145688    1.904947   -1.179370
      6          1           0        0.628483    2.171477   -1.169113
      7         17           0       -1.563879   -1.051580   -0.053062
      8          6           0        1.754209   -0.401713   -0.014284
      9          7           0        2.745597   -1.027198   -0.071328
 ---------------------------------------------------------------------

 The electronic state is 1-A.
 Alpha  occ. eigenvalues -- -101.44959 -19.19203 -14.28957 -10.34279 -10.20004
 Alpha  occ. eigenvalues --  -10.16577  -9.36385  -7.12393  -7.12035  -7.12028
 Alpha  occ. eigenvalues --   -1.09904  -0.84762  -0.76128  -0.70423  -0.54056
 Alpha  occ. eigenvalues --   -0.47272  -0.46219  -0.45658  -0.39080  -0.38532
 Alpha  occ. eigenvalues --   -0.36345  -0.29426  -0.29286  -0.26830  -0.24716
 Alpha  occ. eigenvalues --   -0.23958  -0.23805
 Alpha virt. eigenvalues --   -0.03916   0.00289   0.02906   0.05078   0.05415
 Alpha virt. eigenvalues --    0.05930   0.07343   0.08026   0.09008   0.09993
 Alpha virt. eigenvalues --    0.10382   0.10499   0.10992   0.12833   0.13595

 Mulliken charges:
               1
     1  C    0.313912
     2  O   -0.213156
     3  C   -0.582873
     4  H    0.280063
     5  H    0.267512
     6  H    0.268684
     7  Cl  -0.614736
     8  C   -0.070552
     9  N   -0.648854
 Sum of Mulliken charges =  -1.00000

 Dipole moment (field-independent basis, Debye):
    X=             -2.7911    Y=              7.6582    Z=             -2.5492  Tot=              8.5403
 Quadrupole moment (field-independent basis, Debye-Ang):
   XX=            -76.0802   YY=            -50.8001   ZZ=            -46.8601
   XY=              2.6351   XZ=              0.9098   YZ=             -4.5451

 Normal termination of Gaussian 16 at Wed Jan  8 01:11:45 2020.
