 Gaussian 16, Revision A.03,
 Gaussian 16:  AS64L-G16RevA.03 25-Dec-2016

 ----------------------------------------------------------------------
 #p opt=modredundant b3lyp/6-31+g(d) scrf=(smd, solvent=tetrahydrofuran
 )
 ----------------------------------------------------------------------

 -----
 title
 -----
 Symbolic Z-matrix:
 Charge = -1 Multiplicity = 1

 SCF Done:  E(RB3LYP) =  -706.339751022     A.U. after   15 cycles
 SCF Done:  E(RB3LYP) =  -706.356905841     A.U. after   14 cycles
 SCF Done:  E(RB3LYP) =  -706.359876474     A.U. after   13 cycles
 SCF Done:  E(RB3LYP) =  -706.360470315     A.U. after   12 cycles
 SCF Done:  E(RB3LYP) =  -706.360477140     A.U. after   12 cycles
 SCF Done:  E(RB3LYP) =  -706.360512385     A.U. after   11 cycles
 SCF Done:  E(RB3LYP) =  -706.360513624     A.U. after    9 cycles
 Optimization completed.
    -- Stationary point found.

                         Standard orientation:
 ---------------------------------------------------------------------
 Center     Atomic      Atomic             Coordinates (Angstroms)
 Number     Number       Type             X           Y           Z
 ---------------------------------------------------------------------
      1          6           0        0.331039    0.378362    0.192957
      2          8           0        0.444957    0.855237    1.386952
      3          6           0        0.209411    1.434305   -0.943341
      4          1           0       -0.005003    0.992879   -1.921149
      5          1           0       -0.581283    2.138127   -0.671988
      6          1           0        1.165112    1.972389   -0.994402
      7         17           0       -1.534446   -0.559719   -0.030583
      8          6           0        1.025563   -0.566593   -0.061395
      9          7           0        1.793002   -1.415215   -0.302500
 ---------------------------------------------------------------------

 The electronic state is 1-A.
 Alpha  occ. eigenvalues -- -101.46307 -19.08504 -14.32469 -10.25356 -10.20556
 Alpha  occ. eigenvalues --  -10.16405  -9.37968  -7.14063  -7.13545  -7.13522
 Alpha  occ. eigenvalues --   -0.98799  -0.89131  -0.77474  -0.71449  -0.66995
 Alpha  occ. eigenvalues --   -0.45375  -0.44022  -0.42109  -0.37310  -0.36796
 Alpha  occ. eigenvalues --   -0.36020  -0.30718  -0.30282  -0.25488  -0.25118
 Alpha  occ. eigenvalues --   -0.22490  -0.21491
 Alpha virt. eigenvalues --   -0.03517   0.02649   0.03241   0.05149   0.05964
 Alpha virt. eigenvalues --    0.07272   0.08581   0.09469   0.09685   0.10372
 Alpha virt. eigenvalues --    0.10684   0.11943   0.13888   0.14048   0.14600

 Mulliken charges:
               1
     1  C   -0.235165
     2  O   -0.540210
     3  C   -0.555742
     4  H    0.223753
     5  H    0.237748
     6  H    0.223345
     7  Cl  -0.403204
     8  C    0.713590
     9  N   -0.664114
 Sum of Mulliken charges =  -1.00000

 Dipole moment (field-independent basis, Debye):
    X=              0.0841    Y=              2.9294    Z=             -3.4032  Tot=              4.4911
 Quadrupole moment (field-independent basis, Debye-Ang):
   XX=            -58.8310   YY=            -52.4093   ZZ=            -51.2602
   XY=              2.8635   XZ=             -0.7706   YZ=             -5.3330

 Normal termination of Gaussian 16 at Wed Jan  8 00:31:09 2020.
