 Gaussian 16, Revision A.03,
 Gaussian 16:  AS64L-G16RevA.03 25-Dec-2016

 ----------------------------------------------------------------------
 #p opt=modredundant b3lyp/6-31+g(d) scrf=(smd, solvent=tetrahydrofuran
 )
 ----------------------------------------------------------------------

 -----
 title
 -----
 Symbolic Z-matrix:
 Charge = -1 Multiplicity = 1

 SCF Done:  E(RB3LYP) =  -706.365048203     A.U. after   15 cycles
 SCF Done:  E(RB3LYP) =  -706.398067853     A.U. after   13 cycles
 SCF Done:  E(RB3LYP) =  -706.411259908     A.U. after   13 cycles
 SCF Done:  E(RB3LYP) =  -706.416457905     A.U. after   12 cycles
 SCF Done:  E(RB3LYP) =  -706.417153210     A.U. after   12 cycles
 SCF Done:  E(RB3LYP) =  -706.417243735     A.U. after   10 cycles
 SCF Done:  E(RB3LYP) =  -706.417266248     A.U. after   10 cycles
 SCF Done:  E(RB3LYP) =  -706.417277420     A.U. after   10 cycles
 SCF Done:  E(RB3LYP) =  -706.417279123     A.U. after    9 cycles
 SCF Done:  E(RB3LYP) =  -706.417279376     A.U. after    9 cycles
 Optimization completed.
    -- Stationary point found.

                         Standard orientation:
 ---------------------------------------------------------------------
 Center     Atomic      Atomic             Coordinates (Angstroms)
 Number     Number       Type             X           Y           Z
 ---------------------------------------------------------------------
      1          6           0        0.429602    0.876934    0.225702
      2          8           0        0.352967    1.247899    1.333056
      3          6           0        0.191589    1.429879   -1.124911
      4          1           0       -0.044860    0.638093   -1.832618
      5          1           0       -0.618756    2.162646   -1.070838
      6          1           0        1.125478    1.924884   -1.427865
      7         17           0       -1.951971   -0.762517    0.001393
      8          6           0        1.614917   -0.714039   -0.026951
      9          7           0        2.354466   -1.614668   -0.114266
 ---------------------------------------------------------------------

 The electronic state is 1-A.
 Alpha  occ. eigenvalues -- -101.41787 -19.20580 -14.31507 -10.35159 -10.20383
 Alpha  occ. eigenvalues --  -10.20019  -9.33138  -7.08969  -7.08893  -7.08887
 Alpha  occ. eigenvalues --   -1.11203  -0.87393  -0.76837  -0.67103  -0.55761
 Alpha  occ. eigenvalues --   -0.49640  -0.47195  -0.46315  -0.40353  -0.39193
 Alpha  occ. eigenvalues --   -0.37385  -0.31667  -0.31567  -0.29082  -0.21753
 Alpha  occ. eigenvalues --   -0.21513  -0.21490
 Alpha virt. eigenvalues --   -0.03907  -0.00833   0.02532   0.04356   0.04945
 Alpha virt. eigenvalues --    0.06015   0.06601   0.07471   0.08900   0.09798
 Alpha virt. eigenvalues --    0.10082   0.10346   0.10736   0.12801   0.13446

 Mulliken charges:
               1
     1  C    0.535971
     2  O   -0.242452
     3  C   -0.698141
     4  H    0.289766
     5  H    0.271584
     6  H    0.279038
     7  Cl  -0.878981
     8  C    0.043562
     9  N   -0.600348
 Sum of Mulliken charges =  -1.00000

 Dipole moment (field-independent basis, Debye):
    X=              3.7609    Y=              8.7254    Z=             -2.7246  Tot=              9.8843
 Quadrupole moment (field-independent basis, Debye-Ang):
   XX=            -76.1239   YY=            -53.3181   ZZ=            -46.5814
   XY=              3.2590   XZ=             -0.0361   YZ=             -4.8399

 Normal termination of Gaussian 16 at Wed Jan  8 02:11:37 2020.
