 Gaussian 16, Revision A.03,
 Gaussian 16:  AS64L-G16RevA.03 25-Dec-2016

 ----------------------------------------------------------------------
 #p opt=modredundant b3lyp/6-31+g(d) scrf=(smd, solvent=tetrahydrofuran
 )
 ----------------------------------------------------------------------

 -----
 title
 -----
 Symbolic Z-matrix:
 Charge = -1 Multiplicity = 1

 SCF Done:  E(RB3LYP) =  -706.390796006     A.U. after   14 cycles
 SCF Done:  E(RB3LYP) =  -706.415121901     A.U. after   12 cycles
 SCF Done:  E(RB3LYP) =  -706.421123820     A.U. after   12 cycles
 SCF Done:  E(RB3LYP) =  -706.422213956     A.U. after   12 cycles
 SCF Done:  E(RB3LYP) =  -706.422321995     A.U. after   11 cycles
 SCF Done:  E(RB3LYP) =  -706.422348889     A.U. after   10 cycles
 SCF Done:  E(RB3LYP) =  -706.422357555     A.U. after   10 cycles
 SCF Done:  E(RB3LYP) =  -706.422359392     A.U. after    9 cycles
 SCF Done:  E(RB3LYP) =  -706.422360762     A.U. after    9 cycles
 Optimization completed.
    -- Stationary point found.

                         Standard orientation:
 ---------------------------------------------------------------------
 Center     Atomic      Atomic             Coordinates (Angstroms)
 Number     Number       Type             X           Y           Z
 ---------------------------------------------------------------------
      1          6           0        0.105975    0.755241    0.236377
      2          8           0        0.028980    1.168374    1.352085
      3          6           0       -0.119502    1.452691   -1.069713
      4          1           0       -0.100508    0.757280   -1.907251
      5          1           0       -1.080272    1.974958   -1.032009
      6          1           0        0.687833    2.189520   -1.183740
      7         17           0       -1.536869   -0.973566   -0.032490
      8          6           0        1.536368   -0.463687   -0.043242
      9          7           0        2.464405   -1.169085   -0.125984
 ---------------------------------------------------------------------

 The electronic state is 1-A.
 Alpha  occ. eigenvalues -- -101.44000 -19.15646 -14.31097 -10.32544 -10.19680
 Alpha  occ. eigenvalues --  -10.18594  -9.35458  -7.11422  -7.11127  -7.11119
 Alpha  occ. eigenvalues --   -1.06336  -0.87107  -0.74739  -0.69607  -0.54674
 Alpha  occ. eigenvalues --   -0.47533  -0.44096  -0.43923  -0.39088  -0.36680
 Alpha  occ. eigenvalues --   -0.35921  -0.31424  -0.31228  -0.27073  -0.23730
 Alpha  occ. eigenvalues --   -0.23211  -0.23164
 Alpha virt. eigenvalues --   -0.01926   0.01881   0.03140   0.04901   0.05295
 Alpha virt. eigenvalues --    0.06756   0.06938   0.08033   0.09230   0.09981
 Alpha virt. eigenvalues --    0.10311   0.10594   0.11205   0.13059   0.13726

 Mulliken charges:
               1
     1  C    0.319996
     2  O   -0.301357
     3  C   -0.617536
     4  H    0.259433
     5  H    0.256276
     6  H    0.253333
     7  Cl  -0.658074
     8  C    0.113740
     9  N   -0.625812
 Sum of Mulliken charges =  -1.00000

 Dipole moment (field-independent basis, Debye):
    X=             -0.1079    Y=              6.5218    Z=             -2.7181  Tot=              7.0664
 Quadrupole moment (field-independent basis, Debye-Ang):
   XX=            -69.2242   YY=            -52.4063   ZZ=            -48.1516
   XY=              1.9713   XZ=              0.8357   YZ=             -4.9517

 Normal termination of Gaussian 16 at Wed Jan  8 01:09:44 2020.
