 Gaussian 16, Revision A.03,
 Gaussian 16:  AS64L-G16RevA.03 25-Dec-2016

 ----------------------------------------------------------------------
 #p opt=modredundant b3lyp/6-31+g(d) scrf=(smd, solvent=tetrahydrofuran
 )
 ----------------------------------------------------------------------

 -----
 title
 -----
 Symbolic Z-matrix:
 Charge = -1 Multiplicity = 1

 SCF Done:  E(RB3LYP) =  -706.351271518     A.U. after   14 cycles
 SCF Done:  E(RB3LYP) =  -706.387526544     A.U. after   13 cycles
 SCF Done:  E(RB3LYP) =  -706.397042454     A.U. after   12 cycles
 SCF Done:  E(RB3LYP) =  -706.400842201     A.U. after   12 cycles
 SCF Done:  E(RB3LYP) =  -706.401329124     A.U. after   11 cycles
 SCF Done:  E(RB3LYP) =  -706.401375695     A.U. after   10 cycles
 SCF Done:  E(RB3LYP) =  -706.401424574     A.U. after   10 cycles
 SCF Done:  E(RB3LYP) =  -706.401362095     A.U. after   11 cycles
 SCF Done:  E(RB3LYP) =  -706.401470783     A.U. after   11 cycles
 SCF Done:  E(RB3LYP) =  -706.401462653     A.U. after   10 cycles
 SCF Done:  E(RB3LYP) =  -706.401487283     A.U. after   10 cycles
 SCF Done:  E(RB3LYP) =  -706.401490305     A.U. after   10 cycles
 SCF Done:  E(RB3LYP) =  -706.401490296     A.U. after   10 cycles
 SCF Done:  E(RB3LYP) =  -706.401489680     A.U. after   10 cycles
 SCF Done:  E(RB3LYP) =  -706.401490463     A.U. after    9 cycles
 SCF Done:  E(RB3LYP) =  -706.401490635     A.U. after    8 cycles
 SCF Done:  E(RB3LYP) =  -706.401491162     A.U. after    8 cycles
 SCF Done:  E(RB3LYP) =  -706.401491993     A.U. after    9 cycles
 SCF Done:  E(RB3LYP) =  -706.401493430     A.U. after    8 cycles
 SCF Done:  E(RB3LYP) =  -706.401494846     A.U. after    9 cycles
 Optimization completed.
    -- Stationary point found.

                         Standard orientation:
 ---------------------------------------------------------------------
 Center     Atomic      Atomic             Coordinates (Angstroms)
 Number     Number       Type             X           Y           Z
 ---------------------------------------------------------------------
      1          6           0       -0.290607    0.803972    0.265231
      2          8           0       -0.186350    1.038132    1.390328
      3          6           0       -0.152168    1.341850   -1.095274
      4          1           0        0.028666    0.543341   -1.810551
      5          1           0       -1.096953    1.847620   -1.331783
      6          1           0        0.677748    2.056944   -1.083245
      7         17           0       -1.856554   -0.982261   -0.077093
      8          6           0        2.178569   -0.474812   -0.063216
      9          7           0        3.289712   -0.868655   -0.032416
 ---------------------------------------------------------------------

 The electronic state is 1-A.
 Alpha  occ. eigenvalues -- -101.46908 -19.24092 -14.26520 -10.36873 -10.21960
 Alpha  occ. eigenvalues --  -10.13073  -9.38289  -7.14357  -7.13920  -7.13897
 Alpha  occ. eigenvalues --   -1.14637  -0.82127  -0.78696  -0.72142  -0.56272
 Alpha  occ. eigenvalues --   -0.49294  -0.48737  -0.48318  -0.41148  -0.40874
 Alpha  occ. eigenvalues --   -0.35628  -0.27122  -0.27082  -0.26938  -0.25722
 Alpha  occ. eigenvalues --   -0.25491  -0.23907
 Alpha virt. eigenvalues --   -0.05871  -0.03212   0.02663   0.04743   0.05148
 Alpha virt. eigenvalues --    0.05412   0.07823   0.08062   0.08796   0.09658
 Alpha virt. eigenvalues --    0.09947   0.11168   0.11394   0.12672   0.13290

 Mulliken charges:
               1
     1  C    0.416066
     2  O   -0.161803
     3  C   -0.649562
     4  H    0.314131
     5  H    0.292298
     6  H    0.289713
     7  Cl  -0.564552
     8  C   -0.278105
     9  N   -0.658185
 Sum of Mulliken charges =  -1.00000

 Dipole moment (field-independent basis, Debye):
    X=             -7.3048    Y=              8.6396    Z=             -2.3327  Tot=             11.5518
 Quadrupole moment (field-independent basis, Debye-Ang):
   XX=            -93.8341   YY=            -47.6242   ZZ=            -45.5434
   XY=              3.9714   XZ=              0.5765   YZ=             -3.9062

 Normal termination of Gaussian 16 at Wed Jan  8 01:38:19 2020.
