 Gaussian 16, Revision A.03,
 Gaussian 16:  AS64L-G16RevA.03 25-Dec-2016

 ----------------------------------------------------------------------
 #p opt=modredundant b3lyp/6-31+g(d) scrf=(smd, solvent=tetrahydrofuran
 )
 ----------------------------------------------------------------------

 -----
 title
 -----
 Symbolic Z-matrix:
 Charge = -1 Multiplicity = 1

 SCF Done:  E(RB3LYP) =  -706.392487886     A.U. after   14 cycles
 SCF Done:  E(RB3LYP) =  -706.403325334     A.U. after   12 cycles
 SCF Done:  E(RB3LYP) =  -706.404227598     A.U. after   12 cycles
 SCF Done:  E(RB3LYP) =  -706.404311681     A.U. after   11 cycles
 SCF Done:  E(RB3LYP) =  -706.404326903     A.U. after   10 cycles
 SCF Done:  E(RB3LYP) =  -706.404333568     A.U. after   10 cycles
 SCF Done:  E(RB3LYP) =  -706.404340210     A.U. after   10 cycles
 SCF Done:  E(RB3LYP) =  -706.404342685     A.U. after   10 cycles
 Optimization completed.
    -- Stationary point found.

                         Standard orientation:
 ---------------------------------------------------------------------
 Center     Atomic      Atomic             Coordinates (Angstroms)
 Number     Number       Type             X           Y           Z
 ---------------------------------------------------------------------
      1          6           0       -0.329824    0.467160    0.246314
      2          8           0       -0.377682    0.831736    1.410328
      3          6           0       -0.398682    1.432916   -0.925084
      4          1           0       -0.146370    0.953498   -1.872676
      5          1           0       -1.424077    1.824471   -0.978555
      6          1           0        0.287379    2.263760   -0.736243
      7         17           0       -1.196791   -1.058599   -0.154219
      8          6           0        1.625382   -0.214836   -0.103043
      9          7           0        2.752673   -0.544412   -0.054649
 ---------------------------------------------------------------------

 The electronic state is 1-A.
 Alpha  occ. eigenvalues -- -101.50728 -19.11045 -14.27974 -10.30425 -10.16970
 Alpha  occ. eigenvalues --  -10.15122  -9.42499  -7.18766  -7.17978  -7.17942
 Alpha  occ. eigenvalues --   -1.02098  -0.83828  -0.81143  -0.71216  -0.52535
 Alpha  occ. eigenvalues --   -0.45069  -0.43918  -0.41681  -0.37177  -0.36841
 Alpha  occ. eigenvalues --   -0.34120  -0.29690  -0.28583  -0.28313  -0.27290
 Alpha  occ. eigenvalues --   -0.24395  -0.23380
 Alpha virt. eigenvalues --    0.00537   0.02947   0.04737   0.05552   0.06202
 Alpha virt. eigenvalues --    0.07079   0.08211   0.08649   0.09317   0.09884
 Alpha virt. eigenvalues --    0.10495   0.10798   0.12113   0.13605   0.13868

 Mulliken charges:
               1
     1  C   -0.038089
     2  O   -0.373405
     3  C   -0.514435
     4  H    0.237548
     5  H    0.231487
     6  H    0.239703
     7  Cl  -0.044266
     8  C   -0.048837
     9  N   -0.689707
 Sum of Mulliken charges =  -1.00000

 Dipole moment (field-independent basis, Debye):
    X=             -6.2990    Y=              2.5515    Z=             -3.0506  Tot=              7.4494
 Quadrupole moment (field-independent basis, Debye-Ang):
   XX=            -70.8988   YY=            -47.6405   ZZ=            -50.2118
   XY=              3.3547   XZ=              1.9028   YZ=             -3.8781

 Normal termination of Gaussian 16 at Tue Jan  7 23:48:07 2020.
