 Gaussian 16, Revision A.03,
 Gaussian 16:  AS64L-G16RevA.03 25-Dec-2016

 ----------------------------------------------------------------------
 #p opt=modredundant b3lyp/6-31+g(d) scrf=(smd, solvent=tetrahydrofuran
 )
 ----------------------------------------------------------------------

 -----
 title
 -----
 Symbolic Z-matrix:
 Charge = -1 Multiplicity = 1

 SCF Done:  E(RB3LYP) =  -706.386835255     A.U. after   14 cycles
 SCF Done:  E(RB3LYP) =  -706.410396847     A.U. after   13 cycles
 SCF Done:  E(RB3LYP) =  -706.420910747     A.U. after   13 cycles
 SCF Done:  E(RB3LYP) =  -706.421606915     A.U. after   12 cycles
 SCF Done:  E(RB3LYP) =  -706.421712584     A.U. after   12 cycles
 SCF Done:  E(RB3LYP) =  -706.421762790     A.U. after   11 cycles
 SCF Done:  E(RB3LYP) =  -706.421766739     A.U. after   10 cycles
 Optimization completed.
    -- Stationary point found.

                         Standard orientation:
 ---------------------------------------------------------------------
 Center     Atomic      Atomic             Coordinates (Angstroms)
 Number     Number       Type             X           Y           Z
 ---------------------------------------------------------------------
      1          6           0        0.532208    0.441859    0.188929
      2          8           0        0.690681    0.892295    1.348187
      3          6           0        0.430485    1.412388   -0.988681
      4          1           0        0.091277    0.932315   -1.909450
      5          1           0       -0.247714    2.226656   -0.722546
      6          1           0        1.434390    1.829867   -1.154236
      7         17           0       -1.715891   -0.379727    0.012729
      8          6           0        0.979390   -0.751589   -0.067412
      9          7           0        1.530606   -1.755397   -0.287524
 ---------------------------------------------------------------------

 The electronic state is 1-A.
 Alpha  occ. eigenvalues -- -101.43896 -19.11640 -14.33591 -10.27476 -10.22022
 Alpha  occ. eigenvalues --  -10.16835  -9.35408  -7.11366  -7.11075  -7.11062
 Alpha  occ. eigenvalues --   -1.01490  -0.90202  -0.75723  -0.69516  -0.66533
 Alpha  occ. eigenvalues --   -0.46374  -0.43590  -0.42983  -0.38244  -0.36865
 Alpha  occ. eigenvalues --   -0.36668  -0.32391  -0.31090  -0.24154  -0.23567
 Alpha  occ. eigenvalues --   -0.23212  -0.22769
 Alpha virt. eigenvalues --   -0.04894   0.02526   0.02980   0.04930   0.05909
 Alpha virt. eigenvalues --    0.07098   0.08465   0.09105   0.09600   0.10448
 Alpha virt. eigenvalues --    0.10663   0.12045   0.13441   0.13800   0.14449

 Mulliken charges:
               1
     1  C    0.001133
     2  O   -0.460859
     3  C   -0.588702
     4  H    0.233295
     5  H    0.246127
     6  H    0.233807
     7  Cl  -0.642385
     8  C    0.588169
     9  N   -0.610585
 Sum of Mulliken charges =  -1.00000

 Dipole moment (field-independent basis, Debye):
    X=              2.9842    Y=              3.6605    Z=             -3.0769  Tot=              5.6366
 Quadrupole moment (field-independent basis, Debye-Ang):
   XX=            -60.9661   YY=            -53.7899   ZZ=            -49.9509
   XY=              2.3612   XZ=             -1.5290   YZ=             -5.0673

 Normal termination of Gaussian 16 at Wed Jan  8 01:06:12 2020.
