 Gaussian 16, Revision A.03,
 Gaussian 16:  AS64L-G16RevA.03 25-Dec-2016

 ----------------------------------------------------------------------
 #p opt=modredundant b3lyp/6-31+g(d) scrf=(smd, solvent=tetrahydrofuran
 )
 ----------------------------------------------------------------------

 -----
 title
 -----
 Symbolic Z-matrix:
 Charge = -1 Multiplicity = 1

 SCF Done:  E(RB3LYP) =  -706.316653139     A.U. after   16 cycles
 SCF Done:  E(RB3LYP) =  -706.358194828     A.U. after   14 cycles
 SCF Done:  E(RB3LYP) =  -706.374876941     A.U. after   12 cycles
 SCF Done:  E(RB3LYP) =  -706.384950902     A.U. after   12 cycles
 SCF Done:  E(RB3LYP) =  -706.387989751     A.U. after   11 cycles
 SCF Done:  E(RB3LYP) =  -706.388317337     A.U. after   11 cycles
 SCF Done:  E(RB3LYP) =  -706.388522984     A.U. after   11 cycles
 SCF Done:  E(RB3LYP) =  -706.388661667     A.U. after   10 cycles
 SCF Done:  E(RB3LYP) =  -706.388887413     A.U. after   11 cycles
 SCF Done:  E(RB3LYP) =  -706.389024879     A.U. after   10 cycles
 SCF Done:  E(RB3LYP) =  -706.389143044     A.U. after    9 cycles
 SCF Done:  E(RB3LYP) =  -706.389149967     A.U. after    9 cycles
 SCF Done:  E(RB3LYP) =  -706.389147781     A.U. after    8 cycles
 SCF Done:  E(RB3LYP) =  -706.389087373     A.U. after   11 cycles
 SCF Done:  E(RB3LYP) =  -706.389144098     A.U. after   11 cycles
 SCF Done:  E(RB3LYP) =  -706.389149706     A.U. after    9 cycles
 SCF Done:  E(RB3LYP) =  -706.389149991     A.U. after    8 cycles
 SCF Done:  E(RB3LYP) =  -706.388401547     A.U. after   11 cycles
 SCF Done:  E(RB3LYP) =  -706.388541089     A.U. after   11 cycles
 SCF Done:  E(RB3LYP) =  -706.389166267     A.U. after    5 cycles
 Optimization completed.
    -- Stationary point found.

                         Standard orientation:
 ---------------------------------------------------------------------
 Center     Atomic      Atomic             Coordinates (Angstroms)
 Number     Number       Type             X           Y           Z
 ---------------------------------------------------------------------
      1          6           0        0.129845    0.832663    0.127489
      2          8           0        0.096918    1.103969    1.226997
      3          6           0        0.090435    0.780962   -1.307890
      4          1           0        0.123681   -0.261633   -1.632063
      5          1           0       -0.848428    1.253290   -1.621175
      6          1           0        0.970033    1.323537   -1.675552
      7         17           0       -2.578763   -0.674043    0.070215
      8          6           0        2.621002   -0.444724    0.078322
      9          7           0        3.681523   -0.957376    0.075948
 ---------------------------------------------------------------------

 The electronic state is 1-A.
 Alpha  occ. eigenvalues -- -101.42396 -19.30063 -14.27388 -10.40957 -10.24710
 Alpha  occ. eigenvalues --  -10.14105  -9.33729  -7.09555  -7.09491  -7.09482
 Alpha  occ. eigenvalues --   -1.20631  -0.83030  -0.82529  -0.67633  -0.59895
 Alpha  occ. eigenvalues --   -0.53098  -0.52844  -0.52445  -0.44368  -0.44068
 Alpha  occ. eigenvalues --   -0.36468  -0.27906  -0.27889  -0.25221  -0.22485
 Alpha  occ. eigenvalues --   -0.22118  -0.22069
 Alpha virt. eigenvalues --   -0.07490  -0.06371   0.01695   0.04466   0.04605
 Alpha virt. eigenvalues --    0.04892   0.06857   0.07442   0.08416   0.09623
 Alpha virt. eigenvalues --    0.09938   0.10833   0.11014   0.12284   0.12963

 Mulliken charges:
               1
     1  C    0.843925
     2  O   -0.201793
     3  C   -0.737006
     4  H    0.357015
     5  H    0.326241
     6  H    0.326315
     7  Cl  -0.914574
     8  C   -0.347915
     9  N   -0.652210
 Sum of Mulliken charges =  -1.00000

 Dipole moment (field-independent basis, Debye):
    X=             -1.7526    Y=              9.0217    Z=             -4.0742  Tot=             10.0529
 Quadrupole moment (field-independent basis, Debye-Ang):
   XX=           -123.0370   YY=            -48.6581   ZZ=            -42.8005
   XY=              3.9774   XZ=             -0.5241   YZ=             -2.3518

 Normal termination of Gaussian 16 at Wed Jan  8 03:11:39 2020.
