 Gaussian 16, Revision A.03,
 Gaussian 16:  AS64L-G16RevA.03 25-Dec-2016

 ----------------------------------------------------------------------
 #p opt=modredundant b3lyp/6-31+g(d) scrf=(smd, solvent=tetrahydrofuran
 )
 ----------------------------------------------------------------------

 -----
 title
 -----
 Symbolic Z-matrix:
 Charge = -1 Multiplicity = 1

 SCF Done:  E(RB3LYP) =  -706.379508626     A.U. after   14 cycles
 SCF Done:  E(RB3LYP) =  -706.408142719     A.U. after   12 cycles
 SCF Done:  E(RB3LYP) =  -706.414776144     A.U. after   12 cycles
 SCF Done:  E(RB3LYP) =  -706.415773492     A.U. after   12 cycles
 SCF Done:  E(RB3LYP) =  -706.415947748     A.U. after   11 cycles
 SCF Done:  E(RB3LYP) =  -706.415969658     A.U. after   10 cycles
 SCF Done:  E(RB3LYP) =  -706.415982914     A.U. after   11 cycles
 SCF Done:  E(RB3LYP) =  -706.415984196     A.U. after    9 cycles
 SCF Done:  E(RB3LYP) =  -706.415984220     A.U. after   10 cycles
 SCF Done:  E(RB3LYP) =  -706.415982098     A.U. after    9 cycles
 SCF Done:  E(RB3LYP) =  -706.415981807     A.U. after   11 cycles
 SCF Done:  E(RB3LYP) =  -706.416011820     A.U. after   11 cycles
 SCF Done:  E(RB3LYP) =  -706.415999124     A.U. after   11 cycles
 SCF Done:  E(RB3LYP) =  -706.415865932     A.U. after   14 cycles
 SCF Done:  E(RB3LYP) =  -706.415992230     A.U. after   13 cycles
 SCF Done:  E(RB3LYP) =  -706.415990584     A.U. after   11 cycles
 SCF Done:  E(RB3LYP) =  -706.415990996     A.U. after   10 cycles
 SCF Done:  E(RB3LYP) =  -706.415991114     A.U. after   10 cycles
 SCF Done:  E(RB3LYP) =  -706.415990687     A.U. after   10 cycles
 SCF Done:  E(RB3LYP) =  -706.415985384     A.U. after   10 cycles
 Optimization completed.
    -- Stationary point found.

                         Standard orientation:
 ---------------------------------------------------------------------
 Center     Atomic      Atomic             Coordinates (Angstroms)
 Number     Number       Type             X           Y           Z
 ---------------------------------------------------------------------
      1          6           0       -0.556465    0.563192    0.274880
      2          8           0       -0.394126    0.814026    1.422685
      3          6           0       -0.444826    1.446111   -0.926069
      4          1           0       -0.141650    0.885559   -1.808973
      5          1           0       -1.439183    1.880002   -1.102425
      6          1           0        0.269537    2.244614   -0.712735
      7         17           0       -1.430651   -1.068339   -0.153961
      8          6           0        2.068975   -0.275707   -0.218388
      9          7           0        3.197038   -0.537455    0.011067
 ---------------------------------------------------------------------

 The electronic state is 1-A.
 Alpha  occ. eigenvalues -- -101.51915 -19.17542 -14.25887 -10.33137 -10.19024
 Alpha  occ. eigenvalues --  -10.12284  -9.43540  -7.19802  -7.19058  -7.18984
 Alpha  occ. eigenvalues --   -1.08318  -0.81484  -0.81111  -0.73812  -0.53859
 Alpha  occ. eigenvalues --   -0.46818  -0.45512  -0.45243  -0.38980  -0.37637
 Alpha  occ. eigenvalues --   -0.35002  -0.29984  -0.29772  -0.28053  -0.26477
 Alpha  occ. eigenvalues --   -0.26450  -0.23076
 Alpha virt. eigenvalues --   -0.02116   0.01014   0.03360   0.04831   0.05393
 Alpha virt. eigenvalues --    0.05922   0.08372   0.08537   0.09089   0.09562
 Alpha virt. eigenvalues --    0.10610   0.11386   0.11485   0.13090   0.13524

 Mulliken charges:
               1
     1  C   -0.035755
     2  O   -0.246671
     3  C   -0.548338
     4  H    0.273756
     5  H    0.260449
     6  H    0.262661
     7  Cl  -0.054255
     8  C   -0.257679
     9  N   -0.654169
 Sum of Mulliken charges =  -1.00000

 Dipole moment (field-independent basis, Debye):
    X=            -10.8526    Y=              4.4474    Z=             -2.2583  Tot=             11.9440
 Quadrupole moment (field-independent basis, Debye-Ang):
   XX=            -84.5588   YY=            -45.8215   ZZ=            -48.4453
   XY=              3.4460   XZ=              1.4237   YZ=             -3.3519

 Normal termination of Gaussian 16 at Wed Jan  8 00:31:08 2020.
