 Gaussian 16, Revision A.03,
 Gaussian 16:  AS64L-G16RevA.03 25-Dec-2016

 ----------------------------------------------------------------------
 #p opt=modredundant b3lyp/6-31+g(d) scrf=(smd, solvent=tetrahydrofuran
 )
 ----------------------------------------------------------------------

 -----
 title
 -----
 Symbolic Z-matrix:
 Charge = -1 Multiplicity = 1

 SCF Done:  E(RB3LYP) =  -706.391600590     A.U. after   14 cycles
 SCF Done:  E(RB3LYP) =  -706.418709877     A.U. after   13 cycles
 SCF Done:  E(RB3LYP) =  -706.429639177     A.U. after   13 cycles
 SCF Done:  E(RB3LYP) =  -706.431541913     A.U. after   12 cycles
 SCF Done:  E(RB3LYP) =  -706.431736334     A.U. after   11 cycles
 SCF Done:  E(RB3LYP) =  -706.431768448     A.U. after   10 cycles
 SCF Done:  E(RB3LYP) =  -706.431782312     A.U. after   10 cycles
 SCF Done:  E(RB3LYP) =  -706.431784929     A.U. after    9 cycles
 Optimization completed.
    -- Stationary point found.

                         Standard orientation:
 ---------------------------------------------------------------------
 Center     Atomic      Atomic             Coordinates (Angstroms)
 Number     Number       Type             X           Y           Z
 ---------------------------------------------------------------------
      1          6           0        0.351384    0.769937    0.222278
      2          8           0        0.317602    1.188622    1.339232
      3          6           0        0.108993    1.468281   -1.076500
      4          1           0       -0.053799    0.762590   -1.889655
      5          1           0       -0.749577    2.137208   -0.972819
      6          1           0        1.007668    2.066283   -1.288705
      7         17           0       -1.723115   -0.781049   -0.003320
      8          6           0        1.416657   -0.655694   -0.047480
      9          7           0        2.183662   -1.527481   -0.156575
 ---------------------------------------------------------------------

 The electronic state is 1-A.
 Alpha  occ. eigenvalues -- -101.42659 -19.16250 -14.32301 -10.32756 -10.21297
 Alpha  occ. eigenvalues --  -10.18657  -9.34070  -7.09955  -7.09788  -7.09779
 Alpha  occ. eigenvalues --   -1.06817  -0.88369  -0.74928  -0.68197  -0.56603
 Alpha  occ. eigenvalues --   -0.48399  -0.44499  -0.44155  -0.39551  -0.36860
 Alpha  occ. eigenvalues --   -0.36528  -0.32427  -0.32291  -0.27677  -0.22554
 Alpha  occ. eigenvalues --   -0.22223  -0.22185
 Alpha virt. eigenvalues --   -0.02649   0.02021   0.03096   0.04215   0.05344
 Alpha virt. eigenvalues --    0.06725   0.06821   0.08303   0.09426   0.09797
 Alpha virt. eigenvalues --    0.10438   0.10625   0.11076   0.13157   0.13683

 Mulliken charges:
               1
     1  C    0.366959
     2  O   -0.312919
     3  C   -0.650072
     4  H    0.261894
     5  H    0.259043
     6  H    0.257168
     7  Cl  -0.777134
     8  C    0.195131
     9  N   -0.600070
 Sum of Mulliken charges =  -1.00000

 Dipole moment (field-independent basis, Debye):
    X=              2.7296    Y=              6.7861    Z=             -2.7896  Tot=              7.8284
 Quadrupole moment (field-independent basis, Debye-Ang):
   XX=            -68.4732   YY=            -53.6697   ZZ=            -48.0657
   XY=              2.2504   XZ=              0.0699   YZ=             -5.1206

 Normal termination of Gaussian 16 at Wed Jan  8 01:32:03 2020.
