 Gaussian 16, Revision A.03,
 Gaussian 16:  AS64L-G16RevA.03 25-Dec-2016

 ----------------------------------------------------------------------
 #p opt=modredundant b3lyp/6-31+g(d) scrf=(smd, solvent=tetrahydrofuran
 )
 ----------------------------------------------------------------------

 -----
 title
 -----
 Symbolic Z-matrix:
 Charge = -1 Multiplicity = 1

 SCF Done:  E(RB3LYP) =  -706.323945078     A.U. after   15 cycles
 SCF Done:  E(RB3LYP) =  -706.364243045     A.U. after   13 cycles
 SCF Done:  E(RB3LYP) =  -706.379915158     A.U. after   13 cycles
 SCF Done:  E(RB3LYP) =  -706.388569831     A.U. after   12 cycles
 SCF Done:  E(RB3LYP) =  -706.390780869     A.U. after   11 cycles
 SCF Done:  E(RB3LYP) =  -706.391207949     A.U. after   11 cycles
 SCF Done:  E(RB3LYP) =  -706.391445830     A.U. after   11 cycles
 SCF Done:  E(RB3LYP) =  -706.391568279     A.U. after   11 cycles
 SCF Done:  E(RB3LYP) =  -706.391635340     A.U. after   10 cycles
 SCF Done:  E(RB3LYP) =  -706.391674548     A.U. after   11 cycles
 SCF Done:  E(RB3LYP) =  -706.391816952     A.U. after   10 cycles
 SCF Done:  E(RB3LYP) =  -706.391861940     A.U. after   10 cycles
 SCF Done:  E(RB3LYP) =  -706.391863837     A.U. after    8 cycles
 SCF Done:  E(RB3LYP) =  -706.391865924     A.U. after    9 cycles
 SCF Done:  E(RB3LYP) =  -706.391866797     A.U. after    9 cycles
 SCF Done:  E(RB3LYP) =  -706.391866970     A.U. after    8 cycles
 Optimization completed.
    -- Stationary point found.

                         Standard orientation:
 ---------------------------------------------------------------------
 Center     Atomic      Atomic             Coordinates (Angstroms)
 Number     Number       Type             X           Y           Z
 ---------------------------------------------------------------------
      1          6           0        0.203030    0.913675    0.209719
      2          8           0        0.115350    1.126136    1.324141
      3          6           0        0.100648    1.091353   -1.221102
      4          1           0        0.057626    0.119040   -1.711730
      5          1           0       -0.814269    1.666436   -1.408718
      6          1           0        0.996815    1.638277   -1.539982
      7         17           0       -2.387992   -0.775953    0.005358
      8          6           0        2.352936   -0.537491    0.030774
      9          7           0        3.356174   -1.149551   -0.020018
 ---------------------------------------------------------------------

 The electronic state is 1-A.
 Alpha  occ. eigenvalues -- -101.42115 -19.28543 -14.28115 -10.39971 -10.24011
 Alpha  occ. eigenvalues --  -10.15146  -9.33448  -7.09269  -7.09211  -7.09204
 Alpha  occ. eigenvalues --   -1.19116  -0.83778  -0.81475  -0.67354  -0.58945
 Alpha  occ. eigenvalues --   -0.52175  -0.51813  -0.51372  -0.43551  -0.43284
 Alpha  occ. eigenvalues --   -0.37007  -0.28553  -0.28534  -0.26134  -0.22177
 Alpha  occ. eigenvalues --   -0.21858  -0.21815
 Alpha virt. eigenvalues --   -0.07081  -0.05569   0.01925   0.04557   0.04634
 Alpha virt. eigenvalues --    0.05066   0.06985   0.07353   0.08488   0.09608
 Alpha virt. eigenvalues --    0.09898   0.10610   0.10879   0.12380   0.13154

 Mulliken charges:
               1
     1  C    0.707939
     2  O   -0.169249
     3  C   -0.703612
     4  H    0.347259
     5  H    0.314678
     6  H    0.317880
     7  Cl  -0.910510
     8  C   -0.258531
     9  N   -0.645855
 Sum of Mulliken charges =  -1.00000

 Dipole moment (field-independent basis, Debye):
    X=             -0.2612    Y=             10.4399    Z=             -3.1052  Tot=             10.8950
 Quadrupole moment (field-independent basis, Debye-Ang):
   XX=           -108.5920   YY=            -49.2889   ZZ=            -43.7319
   XY=              4.1671   XZ=             -0.0860   YZ=             -3.4680

 Normal termination of Gaussian 16 at Wed Jan  8 02:50:45 2020.
