 Gaussian 16, Revision A.03,
 Gaussian 16:  AS64L-G16RevA.03 25-Dec-2016

 ----------------------------------------------------------------------
 #p opt=modredundant b3lyp/6-31+g(d) scrf=(smd, solvent=tetrahydrofuran
 )
 ----------------------------------------------------------------------

 -----
 title
 -----
 Symbolic Z-matrix:
 Charge = -1 Multiplicity = 1

 SCF Done:  E(RB3LYP) =  -706.366038703     A.U. after   14 cycles
 SCF Done:  E(RB3LYP) =  -706.398471301     A.U. after   12 cycles
 SCF Done:  E(RB3LYP) =  -706.405380532     A.U. after   12 cycles
 SCF Done:  E(RB3LYP) =  -706.407602931     A.U. after   12 cycles
 SCF Done:  E(RB3LYP) =  -706.407737675     A.U. after   11 cycles
 SCF Done:  E(RB3LYP) =  -706.407751943     A.U. after   10 cycles
 SCF Done:  E(RB3LYP) =  -706.407758999     A.U. after   10 cycles
 SCF Done:  E(RB3LYP) =  -706.407763498     A.U. after    9 cycles
 SCF Done:  E(RB3LYP) =  -706.407766653     A.U. after    9 cycles
 SCF Done:  E(RB3LYP) =  -706.407769486     A.U. after    9 cycles
 SCF Done:  E(RB3LYP) =  -706.407771110     A.U. after    9 cycles
 Optimization completed.
    -- Stationary point found.

                         Standard orientation:
 ---------------------------------------------------------------------
 Center     Atomic      Atomic             Coordinates (Angstroms)
 Number     Number       Type             X           Y           Z
 ---------------------------------------------------------------------
      1          6           0       -0.402111    0.738443    0.260404
      2          8           0       -0.333545    1.034733    1.385810
      3          6           0       -0.284105    1.398785   -1.060650
      4          1           0       -0.018571    0.685282   -1.836330
      5          1           0       -1.265626    1.838149   -1.283117
      6          1           0        0.470637    2.186814   -0.978266
      7         17           0       -1.576311   -1.087387   -0.096807
      8          6           0        2.054608   -0.333052   -0.065829
      9          7           0        3.152693   -0.761085   -0.020944
 ---------------------------------------------------------------------

 The electronic state is 1-A.
 Alpha  occ. eigenvalues -- -101.48508 -19.21101 -14.26395 -10.35100 -10.20621
 Alpha  occ. eigenvalues --  -10.12926  -9.39962  -7.16110  -7.15543  -7.15511
 Alpha  occ. eigenvalues --   -1.11748  -0.82011  -0.77661  -0.73632  -0.54769
 Alpha  occ. eigenvalues --   -0.47465  -0.47240  -0.46818  -0.39631  -0.39409
 Alpha  occ. eigenvalues --   -0.35438  -0.28073  -0.27394  -0.26974  -0.26733
 Alpha  occ. eigenvalues --   -0.26647  -0.23654
 Alpha virt. eigenvalues --   -0.04209  -0.01584   0.02927   0.04841   0.05296
 Alpha virt. eigenvalues --    0.05662   0.08109   0.08408   0.08904   0.09676
 Alpha virt. eigenvalues --    0.10176   0.11206   0.11379   0.12874   0.13451

 Mulliken charges:
               1
     1  C    0.233445
     2  O   -0.186902
     3  C   -0.593956
     4  H    0.293649
     5  H    0.276757
     6  H    0.276114
     7  Cl  -0.392939
     8  C   -0.244403
     9  N   -0.661765
 Sum of Mulliken charges =  -1.00000

 Dipole moment (field-independent basis, Debye):
    X=             -8.4478    Y=              7.0007    Z=             -2.3969  Tot=             11.2303
 Quadrupole moment (field-independent basis, Debye-Ang):
   XX=            -86.2471   YY=            -47.6391   ZZ=            -46.5547
   XY=              3.4759   XZ=              0.9483   YZ=             -3.9435

 Normal termination of Gaussian 16 at Wed Jan  8 00:56:30 2020.
