 Gaussian 16, Revision A.03,
 Gaussian 16:  AS64L-G16RevA.03 25-Dec-2016

 ----------------------------------------------------------------------
 #p opt=modredundant b3lyp/6-31+g(d) scrf=(smd, solvent=tetrahydrofuran
 )
 ----------------------------------------------------------------------

 -----
 title
 -----
 Symbolic Z-matrix:
 Charge = -1 Multiplicity = 1

 SCF Done:  E(RB3LYP) =  -706.341751527     A.U. after   15 cycles
 SCF Done:  E(RB3LYP) =  -706.378884466     A.U. after   13 cycles
 SCF Done:  E(RB3LYP) =  -706.392315615     A.U. after   13 cycles
 SCF Done:  E(RB3LYP) =  -706.398848396     A.U. after   12 cycles
 SCF Done:  E(RB3LYP) =  -706.400331448     A.U. after   12 cycles
 SCF Done:  E(RB3LYP) =  -706.400590789     A.U. after   11 cycles
 SCF Done:  E(RB3LYP) =  -706.400660492     A.U. after   11 cycles
 SCF Done:  E(RB3LYP) =  -706.400680814     A.U. after   10 cycles
 SCF Done:  E(RB3LYP) =  -706.400712614     A.U. after   11 cycles
 SCF Done:  E(RB3LYP) =  -706.400717992     A.U. after   10 cycles
 SCF Done:  E(RB3LYP) =  -706.400721160     A.U. after    9 cycles
 SCF Done:  E(RB3LYP) =  -706.400721359     A.U. after    9 cycles
 SCF Done:  E(RB3LYP) =  -706.400721296     A.U. after    9 cycles
 SCF Done:  E(RB3LYP) =  -706.400721048     A.U. after    9 cycles
 SCF Done:  E(RB3LYP) =  -706.400718320     A.U. after   10 cycles
 SCF Done:  E(RB3LYP) =  -706.400721316     A.U. after   10 cycles
 SCF Done:  E(RB3LYP) =  -706.400719935     A.U. after    9 cycles
 SCF Done:  E(RB3LYP) =  -706.400718975     A.U. after    9 cycles
 SCF Done:  E(RB3LYP) =  -706.400721353     A.U. after   10 cycles
 SCF Done:  E(RB3LYP) =  -706.400718935     A.U. after   10 cycles
 Optimization completed.
    -- Stationary point found.

                         Standard orientation:
 ---------------------------------------------------------------------
 Center     Atomic      Atomic             Coordinates (Angstroms)
 Number     Number       Type             X           Y           Z
 ---------------------------------------------------------------------
      1          6           0        0.290708    0.935273    0.230781
      2          8           0        0.172322    1.221016    1.339359
      3          6           0        0.108032    1.311063   -1.171352
      4          1           0       -0.010922    0.423544   -1.789030
      5          1           0       -0.773671    1.958104   -1.233351
      6          1           0        1.015139    1.854311   -1.468221
      7         17           0       -2.116686   -0.838772   -0.008423
      8          6           0        1.975890   -0.613406    0.003288
      9          7           0        2.875251   -1.363221   -0.065339
 ---------------------------------------------------------------------

 The electronic state is 1-A.
 Alpha  occ. eigenvalues -- -101.41936 -19.24907 -14.29643 -10.37656 -10.22328
 Alpha  occ. eigenvalues --  -10.17347  -9.33274  -7.09101  -7.09033  -7.09027
 Alpha  occ. eigenvalues --   -1.15506  -0.85385  -0.79140  -0.67200  -0.56915
 Alpha  occ. eigenvalues --   -0.50233  -0.49808  -0.48899  -0.41642  -0.41387
 Alpha  occ. eigenvalues --   -0.37811  -0.29932  -0.29887  -0.27887  -0.21956
 Alpha  occ. eigenvalues --   -0.21669  -0.21629
 Alpha virt. eigenvalues --   -0.05810  -0.03639   0.02301   0.04680   0.04693
 Alpha virt. eigenvalues --    0.05439   0.06798   0.07435   0.08675   0.09787
 Alpha virt. eigenvalues --    0.09950   0.10266   0.10789   0.12564   0.13369

 Mulliken charges:
               1
     1  C    0.576650
     2  O   -0.172798
     3  C   -0.677744
     4  H    0.319999
     5  H    0.292072
     6  H    0.299143
     7  Cl  -0.891864
     8  C   -0.120342
     9  N   -0.625116
 Sum of Mulliken charges =  -1.00000

 Dipole moment (field-independent basis, Debye):
    X=              1.6679    Y=             10.2783    Z=             -2.7439  Tot=             10.7682
 Quadrupole moment (field-independent basis, Debye-Ang):
   XX=            -89.6747   YY=            -51.1068   ZZ=            -45.0338
   XY=              3.6764   XZ=              0.1476   YZ=             -4.2572

 Normal termination of Gaussian 16 at Wed Jan  8 02:38:29 2020.
