 Gaussian 16, Revision A.03,
 Gaussian 16:  AS64L-G16RevA.03 25-Dec-2016

 ----------------------------------------------------------------------
 #p opt=modredundant b3lyp/6-31+g(d) scrf=(smd, solvent=tetrahydrofuran
 )
 ----------------------------------------------------------------------

 -----
 title
 -----
 Symbolic Z-matrix:
 Charge = -1 Multiplicity = 1

 SCF Done:  E(RB3LYP) =  -706.320071961     A.U. after   16 cycles
 SCF Done:  E(RB3LYP) =  -706.361061438     A.U. after   13 cycles
 SCF Done:  E(RB3LYP) =  -706.377215858     A.U. after   12 cycles
 SCF Done:  E(RB3LYP) =  -706.386549401     A.U. after   12 cycles
 SCF Done:  E(RB3LYP) =  -706.389113046     A.U. after   11 cycles
 SCF Done:  E(RB3LYP) =  -706.389493808     A.U. after   11 cycles
 SCF Done:  E(RB3LYP) =  -706.389820244     A.U. after   11 cycles
 SCF Done:  E(RB3LYP) =  -706.389942167     A.U. after   10 cycles
 SCF Done:  E(RB3LYP) =  -706.390105328     A.U. after   10 cycles
 SCF Done:  E(RB3LYP) =  -706.390236690     A.U. after   10 cycles
 SCF Done:  E(RB3LYP) =  -706.390288075     A.U. after    9 cycles
 SCF Done:  E(RB3LYP) =  -706.390285485     A.U. after    9 cycles
 SCF Done:  E(RB3LYP) =  -706.390282297     A.U. after    9 cycles
 SCF Done:  E(RB3LYP) =  -706.390288314     A.U. after    9 cycles
 SCF Done:  E(RB3LYP) =  -706.390283953     A.U. after   10 cycles
 SCF Done:  E(RB3LYP) =  -706.390287090     A.U. after    9 cycles
 SCF Done:  E(RB3LYP) =  -706.390289296     A.U. after    9 cycles
 SCF Done:  E(RB3LYP) =  -706.390289763     A.U. after    9 cycles
 SCF Done:  E(RB3LYP) =  -706.390290275     A.U. after    8 cycles
 SCF Done:  E(RB3LYP) =  -706.390290422     A.U. after    7 cycles
 Optimization completed.
    -- Stationary point found.

                         Standard orientation:
 ---------------------------------------------------------------------
 Center     Atomic      Atomic             Coordinates (Angstroms)
 Number     Number       Type             X           Y           Z
 ---------------------------------------------------------------------
      1          6           0        0.161736    0.902084    0.197960
      2          8           0        0.098422    1.103697    1.313328
      3          6           0        0.094126    1.024271   -1.236193
      4          1           0        0.082512    0.031715   -1.688284
      5          1           0       -0.829248    1.569564   -1.467652
      6          1           0        0.986350    1.578415   -1.553631
      7         17           0       -2.450695   -0.756556    0.013257
      8          6           0        2.454257   -0.515358    0.039201
      9          7           0        3.482018   -1.087685   -0.004033
 ---------------------------------------------------------------------

 The electronic state is 1-A.
 Alpha  occ. eigenvalues -- -101.42256 -19.29348 -14.27708 -10.40496 -10.24395
 Alpha  occ. eigenvalues --  -10.14573  -9.33588  -7.09413  -7.09350  -7.09342
 Alpha  occ. eigenvalues --   -1.19921  -0.83355  -0.82039  -0.67488  -0.59444
 Alpha  occ. eigenvalues --   -0.52665  -0.52349  -0.51931  -0.43987  -0.43711
 Alpha  occ. eigenvalues --   -0.36708  -0.28189  -0.28172  -0.25631  -0.22331
 Alpha  occ. eigenvalues --   -0.21978  -0.21937
 Alpha virt. eigenvalues --   -0.07310  -0.05988   0.01792   0.04521   0.04620
 Alpha virt. eigenvalues --    0.04981   0.06976   0.07385   0.08449   0.09580
 Alpha virt. eigenvalues --    0.09898   0.10733   0.10960   0.12315   0.13074

 Mulliken charges:
               1
     1  C    0.759883
     2  O   -0.180210
     3  C   -0.716807
     4  H    0.353097
     5  H    0.320642
     6  H    0.322557
     7  Cl  -0.909965
     8  C   -0.299433
     9  N   -0.649763
 Sum of Mulliken charges =  -1.00000

 Dipole moment (field-independent basis, Debye):
    X=             -1.0295    Y=             10.2945    Z=             -3.2664  Tot=             10.8492
 Quadrupole moment (field-independent basis, Debye-Ang):
   XX=           -113.9997   YY=            -48.9023   ZZ=            -43.4271
   XY=              4.2115   XZ=             -0.1790   YZ=             -3.2333

 Normal termination of Gaussian 16 at Wed Jan  8 03:03:19 2020.
