 Gaussian 16, Revision A.03,
 Gaussian 16:  AS64L-G16RevA.03 25-Dec-2016

 ----------------------------------------------------------------------
 #p opt=modredundant b3lyp/6-31+g(d) scrf=(smd, solvent=tetrahydrofuran
 )
 ----------------------------------------------------------------------

 -----
 title
 -----
 Symbolic Z-matrix:
 Charge = -1 Multiplicity = 1

 SCF Done:  E(RB3LYP) =  -706.386023625     A.U. after   14 cycles
 SCF Done:  E(RB3LYP) =  -706.407798966     A.U. after   12 cycles
 SCF Done:  E(RB3LYP) =  -706.411086401     A.U. after   12 cycles
 SCF Done:  E(RB3LYP) =  -706.411667579     A.U. after   12 cycles
 SCF Done:  E(RB3LYP) =  -706.411716650     A.U. after   11 cycles
 SCF Done:  E(RB3LYP) =  -706.411760560     A.U. after   11 cycles
 SCF Done:  E(RB3LYP) =  -706.411770132     A.U. after   10 cycles
 SCF Done:  E(RB3LYP) =  -706.411773662     A.U. after    9 cycles
 SCF Done:  E(RB3LYP) =  -706.411774918     A.U. after   10 cycles
 SCF Done:  E(RB3LYP) =  -706.411775304     A.U. after    9 cycles
 SCF Done:  E(RB3LYP) =  -706.411775306     A.U. after    9 cycles
 Optimization completed.
    -- Stationary point found.

                         Standard orientation:
 ---------------------------------------------------------------------
 Center     Atomic      Atomic             Coordinates (Angstroms)
 Number     Number       Type             X           Y           Z
 ---------------------------------------------------------------------
      1          6           0       -0.151836    0.699827    0.249203
      2          8           0       -0.241086    1.094572    1.366298
      3          6           0       -0.274206    1.426634   -1.056421
      4          1           0       -0.087995    0.767056   -1.901792
      5          1           0       -1.285798    1.843963   -1.120806
      6          1           0        0.456521    2.244327   -1.049509
      7         17           0       -1.386144   -1.092156   -0.075267
      8          6           0        1.670467   -0.304661   -0.034023
      9          7           0        2.706266   -0.853724   -0.075900
 ---------------------------------------------------------------------

 The electronic state is 1-A.
 Alpha  occ. eigenvalues -- -101.46359 -19.15852 -14.29062 -10.32593 -10.18739
 Alpha  occ. eigenvalues --  -10.16756  -9.37870  -7.13956  -7.13466  -7.13457
 Alpha  occ. eigenvalues --   -1.06649  -0.84930  -0.75398  -0.71635  -0.53047
 Alpha  occ. eigenvalues --   -0.46289  -0.44432  -0.44091  -0.38300  -0.37156
 Alpha  occ. eigenvalues --   -0.35423  -0.29679  -0.29380  -0.26511  -0.25627
 Alpha  occ. eigenvalues --   -0.24804  -0.24482
 Alpha virt. eigenvalues --   -0.02052   0.01728   0.03327   0.05211   0.05676
 Alpha virt. eigenvalues --    0.06397   0.07517   0.08104   0.09135   0.10004
 Alpha virt. eigenvalues --    0.10446   0.10581   0.11187   0.12994   0.13696

 Mulliken charges:
               1
     1  C    0.222448
     2  O   -0.271048
     3  C   -0.571684
     4  H    0.261156
     5  H    0.253903
     6  H    0.254239
     7  Cl  -0.467979
     8  C   -0.020391
     9  N   -0.660645
 Sum of Mulliken charges =  -1.00000

 Dipole moment (field-independent basis, Debye):
    X=             -3.6737    Y=              5.8126    Z=             -2.6438  Tot=              7.3670
 Quadrupole moment (field-independent basis, Debye-Ang):
   XX=            -72.2359   YY=            -50.3638   ZZ=            -48.0391
   XY=              2.4768   XZ=              1.3059   YZ=             -4.5500

 Normal termination of Gaussian 16 at Wed Jan  8 00:53:05 2020.
