 Gaussian 16, Revision A.03,
 Gaussian 16:  AS64L-G16RevA.03 25-Dec-2016

 ----------------------------------------------------------------------
 #p opt=modredundant b3lyp/6-31+g(d) scrf=(smd, solvent=tetrahydrofuran
 )
 ----------------------------------------------------------------------

 -----
 title
 -----
 Symbolic Z-matrix:
 Charge = -1 Multiplicity = 1

 SCF Done:  E(RB3LYP) =  -706.353053794     A.U. after   14 cycles
 SCF Done:  E(RB3LYP) =  -706.387573326     A.U. after   12 cycles
 SCF Done:  E(RB3LYP) =  -706.396614764     A.U. after   12 cycles
 SCF Done:  E(RB3LYP) =  -706.399827293     A.U. after   11 cycles
 SCF Done:  E(RB3LYP) =  -706.400130625     A.U. after   11 cycles
 SCF Done:  E(RB3LYP) =  -706.400146776     A.U. after   10 cycles
 SCF Done:  E(RB3LYP) =  -706.400161354     A.U. after   10 cycles
 SCF Done:  E(RB3LYP) =  -706.400170949     A.U. after   10 cycles
 SCF Done:  E(RB3LYP) =  -706.400176693     A.U. after    9 cycles
 SCF Done:  E(RB3LYP) =  -706.400180694     A.U. after   10 cycles
 SCF Done:  E(RB3LYP) =  -706.400181449     A.U. after    8 cycles
 SCF Done:  E(RB3LYP) =  -706.400181454     A.U. after    9 cycles
 Optimization completed.
    -- Stationary point found.

                         Standard orientation:
 ---------------------------------------------------------------------
 Center     Atomic      Atomic             Coordinates (Angstroms)
 Number     Number       Type             X           Y           Z
 ---------------------------------------------------------------------
      1          6           0       -0.014918    0.870437    0.246289
      2          8           0       -0.061686    1.182760    1.358069
      3          6           0       -0.064857    1.357495   -1.141846
      4          1           0        0.010094    0.535791   -1.848145
      5          1           0       -1.015215    1.889714   -1.265683
      6          1           0        0.780500    2.046927   -1.262316
      7         17           0       -1.826218   -0.972765   -0.039716
      8          6           0        1.942977   -0.494742   -0.004582
      9          7           0        2.940656   -1.113807   -0.058915
 ---------------------------------------------------------------------

 The electronic state is 1-A.
 Alpha  occ. eigenvalues -- -101.44132 -19.23273 -14.28295 -10.36592 -10.21691
 Alpha  occ. eigenvalues --  -10.15547  -9.35502  -7.11450  -7.11193  -7.11184
 Alpha  occ. eigenvalues --   -1.13892  -0.84007  -0.78129  -0.69444  -0.55861
 Alpha  occ. eigenvalues --   -0.48822  -0.48683  -0.47767  -0.40807  -0.40467
 Alpha  occ. eigenvalues --   -0.36794  -0.28729  -0.28678  -0.26346  -0.24105
 Alpha  occ. eigenvalues --   -0.23341  -0.23322
 Alpha virt. eigenvalues --   -0.05819  -0.02030   0.02596   0.04886   0.05172
 Alpha virt. eigenvalues --    0.05510   0.07335   0.07919   0.08814   0.09903
 Alpha virt. eigenvalues --    0.10062   0.10619   0.11039   0.12653   0.13462

 Mulliken charges:
               1
     1  C    0.398983
     2  O   -0.158208
     3  C   -0.595244
     4  H    0.306822
     5  H    0.286670
     6  H    0.288022
     7  Cl  -0.721676
     8  C   -0.158511
     9  N   -0.646857
 Sum of Mulliken charges =  -1.00000

 Dipole moment (field-independent basis, Debye):
    X=             -2.6202    Y=              9.3703    Z=             -2.5504  Tot=             10.0585
 Quadrupole moment (field-independent basis, Debye-Ang):
   XX=            -85.2463   YY=            -50.0918   ZZ=            -45.5256
   XY=              3.2986   XZ=              0.5222   YZ=             -4.2968

 Normal termination of Gaussian 16 at Wed Jan  8 01:39:38 2020.
