 Gaussian 16, Revision A.03,
 Gaussian 16:  AS64L-G16RevA.03 25-Dec-2016

 ----------------------------------------------------------------------
 #p opt=modredundant b3lyp/6-31+g(d) scrf=(smd, solvent=tetrahydrofuran
 )
 ----------------------------------------------------------------------

 -----
 title
 -----
 Symbolic Z-matrix:
 Charge = -1 Multiplicity = 1

 SCF Done:  E(RB3LYP) =  -706.321968825     A.U. after   15 cycles
 SCF Done:  E(RB3LYP) =  -706.355765413     A.U. after   14 cycles
 SCF Done:  E(RB3LYP) =  -706.382163542     A.U. after   15 cycles
 SCF Done:  E(RB3LYP) =  -706.384165942     A.U. after   12 cycles
 SCF Done:  E(RB3LYP) =  -706.384341046     A.U. after   12 cycles
 SCF Done:  E(RB3LYP) =  -706.384176882     A.U. after   12 cycles
 SCF Done:  E(RB3LYP) =  -706.384431665     A.U. after   11 cycles
 SCF Done:  E(RB3LYP) =  -706.384500949     A.U. after   11 cycles
 SCF Done:  E(RB3LYP) =  -706.384537352     A.U. after   12 cycles
 SCF Done:  E(RB3LYP) =  -706.384540901     A.U. after   10 cycles
 SCF Done:  E(RB3LYP) =  -706.384541002     A.U. after    9 cycles
 Optimization completed.
    -- Stationary point found.

                         Standard orientation:
 ---------------------------------------------------------------------
 Center     Atomic      Atomic             Coordinates (Angstroms)
 Number     Number       Type             X           Y           Z
 ---------------------------------------------------------------------
      1          6           0       -0.947899   -0.302323    0.161301
      2          8           0       -1.190658   -0.715023    1.315509
      3          6           0       -0.852971   -1.288349   -0.996346
      4          1           0       -0.275518   -0.894502   -1.835292
      5          1           0       -0.406742   -2.216935   -0.633270
      6          1           0       -1.877376   -1.494753   -1.338927
      7         17           0        2.132121    0.034075    0.059731
      8          6           0       -0.954640    0.874595   -0.072835
      9          7           0       -1.089729    2.006224   -0.326388
 ---------------------------------------------------------------------

 The electronic state is 1-A.
 Alpha  occ. eigenvalues -- -101.41566 -19.15515 -14.36241 -10.28130 -10.22963
 Alpha  occ. eigenvalues --  -10.17855  -9.32902  -7.08727  -7.08659  -7.08658
 Alpha  occ. eigenvalues --   -1.04864  -0.92424  -0.78763  -0.69406  -0.66789
 Alpha  occ. eigenvalues --   -0.48256  -0.46027  -0.45834  -0.39581  -0.38620
 Alpha  occ. eigenvalues --   -0.38026  -0.33638  -0.32507  -0.26688  -0.21423
 Alpha  occ. eigenvalues --   -0.21282  -0.21261
 Alpha virt. eigenvalues --   -0.09507   0.00976   0.02410   0.04811   0.05887
 Alpha virt. eigenvalues --    0.06792   0.08911   0.09250   0.09366   0.10403
 Alpha virt. eigenvalues --    0.10683   0.12279   0.13137   0.13553   0.14180

 Mulliken charges:
               1
     1  C    0.241217
     2  O   -0.428174
     3  C   -0.624622
     4  H    0.249513
     5  H    0.255886
     6  H    0.252896
     7  Cl  -0.898281
     8  C    0.479376
     9  N   -0.527811
 Sum of Mulliken charges =  -1.00000

 Dipole moment (field-independent basis, Debye):
    X=             -8.1889    Y=             -2.7960    Z=             -3.0681  Tot=              9.1809
 Quadrupole moment (field-independent basis, Debye-Ang):
   XX=            -68.0758   YY=            -52.9171   ZZ=            -48.9304
   XY=              2.3678   XZ=              2.7987   YZ=              4.3343

 Normal termination of Gaussian 16 at Wed Jan  8 02:38:25 2020.
