 Gaussian 16, Revision A.03,
 Gaussian 16:  AS64L-G16RevA.03 25-Dec-2016

 ----------------------------------------------------------------------
 #p opt=modredundant b3lyp/6-31+g(d) scrf=(smd, solvent=tetrahydrofuran
 )
 ----------------------------------------------------------------------

 -----
 title
 -----
 Symbolic Z-matrix:
 Charge = -1 Multiplicity = 1

 SCF Done:  E(RB3LYP) =  -706.398001523     A.U. after   14 cycles
 SCF Done:  E(RB3LYP) =  -706.416433675     A.U. after   12 cycles
 SCF Done:  E(RB3LYP) =  -706.419712183     A.U. after   12 cycles
 SCF Done:  E(RB3LYP) =  -706.420126591     A.U. after   11 cycles
 SCF Done:  E(RB3LYP) =  -706.420182665     A.U. after   10 cycles
 SCF Done:  E(RB3LYP) =  -706.420199322     A.U. after   10 cycles
 SCF Done:  E(RB3LYP) =  -706.420201525     A.U. after    9 cycles
 SCF Done:  E(RB3LYP) =  -706.420203429     A.U. after   10 cycles
 SCF Done:  E(RB3LYP) =  -706.420203488     A.U. after    9 cycles
 Optimization completed.
    -- Stationary point found.

                         Standard orientation:
 ---------------------------------------------------------------------
 Center     Atomic      Atomic             Coordinates (Angstroms)
 Number     Number       Type             X           Y           Z
 ---------------------------------------------------------------------
      1          6           0       -0.036599    0.671079    0.241665
      2          8           0       -0.123730    1.091152    1.365856
      3          6           0       -0.244738    1.436224   -1.039506
      4          1           0       -0.136260    0.797424   -1.915865
      5          1           0       -1.244667    1.882506   -1.024219
      6          1           0        0.504951    2.237585   -1.071959
      7         17           0       -1.385523   -1.040492   -0.059873
      8          6           0        1.541296   -0.346233   -0.050437
      9          7           0        2.551423   -0.932111   -0.115329
 ---------------------------------------------------------------------

 The electronic state is 1-A.
 Alpha  occ. eigenvalues -- -101.45650 -19.13451 -14.30545 -10.31546 -10.18913
 Alpha  occ. eigenvalues --  -10.17893  -9.37187  -7.13243  -7.12797  -7.12787
 Alpha  occ. eigenvalues --   -1.04207  -0.86570  -0.74712  -0.70930  -0.53942
 Alpha  occ. eigenvalues --   -0.46503  -0.43417  -0.42608  -0.38470  -0.36056
 Alpha  occ. eigenvalues --   -0.35268  -0.31024  -0.30718  -0.26070  -0.24974
 Alpha  occ. eigenvalues --   -0.24215  -0.23965
 Alpha virt. eigenvalues --   -0.00731   0.02288   0.03610   0.05286   0.05394
 Alpha virt. eigenvalues --    0.07024   0.07167   0.08169   0.09358   0.10113
 Alpha virt. eigenvalues --    0.10269   0.10568   0.11607   0.13145   0.13789

 Mulliken charges:
               1
     1  C    0.242596
     2  O   -0.337820
     3  C   -0.598131
     4  H    0.248710
     5  H    0.247503
     6  H    0.244478
     7  Cl  -0.504564
     8  C    0.102279
     9  N   -0.645052
 Sum of Mulliken charges =  -1.00000

 Dipole moment (field-independent basis, Debye):
    X=             -1.8917    Y=              5.1512    Z=             -2.8236  Tot=              6.1714
 Quadrupole moment (field-independent basis, Debye-Ang):
   XX=            -68.1519   YY=            -51.3988   ZZ=            -48.9188
   XY=              2.1205   XZ=              1.2574   YZ=             -4.8622

 Normal termination of Gaussian 16 at Wed Jan  8 00:50:33 2020.
