 Gaussian 16, Revision A.03,
 Gaussian 16:  AS64L-G16RevA.03 25-Dec-2016

 ----------------------------------------------------------------------
 #p opt=modredundant b3lyp/6-31+g(d) scrf=(smd, solvent=tetrahydrofuran
 )
 ----------------------------------------------------------------------

 -----
 title
 -----
 Symbolic Z-matrix:
 Charge = -1 Multiplicity = 1

 SCF Done:  E(RB3LYP) =  -706.331382653     A.U. after   15 cycles
 SCF Done:  E(RB3LYP) =  -706.371197811     A.U. after   13 cycles
 SCF Done:  E(RB3LYP) =  -706.384711585     A.U. after   12 cycles
 SCF Done:  E(RB3LYP) =  -706.391339853     A.U. after   12 cycles
 SCF Done:  E(RB3LYP) =  -706.392900666     A.U. after   11 cycles
 SCF Done:  E(RB3LYP) =  -706.393017973     A.U. after   10 cycles
 SCF Done:  E(RB3LYP) =  -706.392959257     A.U. after   11 cycles
 SCF Done:  E(RB3LYP) =  -706.393141166     A.U. after   10 cycles
 SCF Done:  E(RB3LYP) =  -706.393288319     A.U. after   10 cycles
 SCF Done:  E(RB3LYP) =  -706.393354499     A.U. after   11 cycles
 SCF Done:  E(RB3LYP) =  -706.393366602     A.U. after   10 cycles
 SCF Done:  E(RB3LYP) =  -706.393371134     A.U. after    9 cycles
 SCF Done:  E(RB3LYP) =  -706.393380330     A.U. after   10 cycles
 SCF Done:  E(RB3LYP) =  -706.393383042     A.U. after    9 cycles
 SCF Done:  E(RB3LYP) =  -706.393385368     A.U. after    8 cycles
 SCF Done:  E(RB3LYP) =  -706.393387688     A.U. after    8 cycles
 SCF Done:  E(RB3LYP) =  -706.393390073     A.U. after    9 cycles
 SCF Done:  E(RB3LYP) =  -706.393392248     A.U. after    8 cycles
 SCF Done:  E(RB3LYP) =  -706.393393746     A.U. after    8 cycles
 SCF Done:  E(RB3LYP) =  -706.393395781     A.U. after    8 cycles
 Optimization completed.
    -- Stationary point found.

                         Standard orientation:
 ---------------------------------------------------------------------
 Center     Atomic      Atomic             Coordinates (Angstroms)
 Number     Number       Type             X           Y           Z
 ---------------------------------------------------------------------
      1          6           0       -0.140964    0.867341    0.258383
      2          8           0       -0.057945    1.016727    1.386269
      3          6           0       -0.042684    1.217283   -1.146363
      4          1           0        0.067002    0.318545   -1.751435
      5          1           0       -0.967913    1.742993   -1.411606
      6          1           0        0.833618    1.869343   -1.249885
      7         17           0       -2.183757   -0.871071   -0.049712
      8          6           0        2.395978   -0.505225   -0.041599
      9          7           0        3.482965   -0.961841   -0.036379
 ---------------------------------------------------------------------

 The electronic state is 1-A.
 Alpha  occ. eigenvalues -- -101.44601 -19.27744 -14.26712 -10.39287 -10.23658
 Alpha  occ. eigenvalues --  -10.13288  -9.35941  -7.11888  -7.11640  -7.11626
 Alpha  occ. eigenvalues --   -1.18255  -0.82317  -0.80899  -0.69786  -0.58407
 Alpha  occ. eigenvalues --   -0.51582  -0.51126  -0.50618  -0.43116  -0.42844
 Alpha  occ. eigenvalues --   -0.35858  -0.27277  -0.27260  -0.24822  -0.24281
 Alpha  occ. eigenvalues --   -0.23776  -0.23732
 Alpha virt. eigenvalues --   -0.07069  -0.05175   0.02176   0.04586   0.04934
 Alpha virt. eigenvalues --    0.05063   0.07353   0.07791   0.08621   0.09592
 Alpha virt. eigenvalues --    0.09813   0.11087   0.11375   0.12469   0.13092

 Mulliken charges:
               1
     1  C    0.629915
     2  O   -0.158435
     3  C   -0.703121
     4  H    0.341274
     5  H    0.313041
     6  H    0.310352
     7  Cl  -0.753253
     8  C   -0.322855
     9  N   -0.656917
 Sum of Mulliken charges =  -1.00000

 Dipole moment (field-independent basis, Debye):
    X=             -5.3450    Y=             10.0705    Z=             -2.4857  Tot=             11.6689
 Quadrupole moment (field-independent basis, Debye-Ang):
   XX=           -106.7673   YY=            -47.7413   ZZ=            -44.2988
   XY=              4.0465   XZ=              0.2717   YZ=             -3.6823

 Normal termination of Gaussian 16 at Wed Jan  8 02:04:25 2020.
