 Gaussian 16, Revision A.03,
 Gaussian 16:  AS64L-G16RevA.03 25-Dec-2016

 ----------------------------------------------------------------------
 #p opt=modredundant b3lyp/6-31+g(d) scrf=(smd, solvent=tetrahydrofuran
 )
 ----------------------------------------------------------------------

 -----
 title
 -----
 Symbolic Z-matrix:
 Charge = -1 Multiplicity = 1

 SCF Done:  E(RB3LYP) =  -706.401759531     A.U. after   14 cycles
 SCF Done:  E(RB3LYP) =  -706.422358516     A.U. after   12 cycles
 SCF Done:  E(RB3LYP) =  -706.427274976     A.U. after   12 cycles
 SCF Done:  E(RB3LYP) =  -706.427767733     A.U. after   12 cycles
 SCF Done:  E(RB3LYP) =  -706.427841662     A.U. after   11 cycles
 SCF Done:  E(RB3LYP) =  -706.427865057     A.U. after   10 cycles
 SCF Done:  E(RB3LYP) =  -706.427869196     A.U. after   10 cycles
 SCF Done:  E(RB3LYP) =  -706.427870861     A.U. after    9 cycles
 SCF Done:  E(RB3LYP) =  -706.427871646     A.U. after    9 cycles
 Optimization completed.
    -- Stationary point found.

                         Standard orientation:
 ---------------------------------------------------------------------
 Center     Atomic      Atomic             Coordinates (Angstroms)
 Number     Number       Type             X           Y           Z
 ---------------------------------------------------------------------
      1          6           0        0.094875    0.697266    0.232495
      2          8           0        0.025829    1.129729    1.356474
      3          6           0       -0.150933    1.454429   -1.045656
      4          1           0       -0.128286    0.801895   -1.918552
      5          1           0       -1.118999    1.960192   -0.980607
      6          1           0        0.641316    2.210956   -1.133928
      7         17           0       -1.465592   -0.970845   -0.036483
      8          6           0        1.463393   -0.436849   -0.052003
      9          7           0        2.410057   -1.113654   -0.143931
 ---------------------------------------------------------------------

 The electronic state is 1-A.
 Alpha  occ. eigenvalues -- -101.44531 -19.13453 -14.31555 -10.31463 -10.20364
 Alpha  occ. eigenvalues --  -10.17825  -9.36038  -7.12032  -7.11685  -7.11673
 Alpha  occ. eigenvalues --   -1.04098  -0.87666  -0.74272  -0.70111  -0.55567
 Alpha  occ. eigenvalues --   -0.46953  -0.43266  -0.42649  -0.38769  -0.35816
 Alpha  occ. eigenvalues --   -0.35729  -0.31816  -0.31628  -0.26067  -0.24104
 Alpha  occ. eigenvalues --   -0.23578  -0.23337
 Alpha virt. eigenvalues --   -0.01028   0.02351   0.03597   0.04787   0.05446
 Alpha virt. eigenvalues --    0.06941   0.07016   0.08476   0.09629   0.10044
 Alpha virt. eigenvalues --    0.10382   0.10620   0.11757   0.13284   0.13823

 Mulliken charges:
               1
     1  C    0.262446
     2  O   -0.352099
     3  C   -0.612509
     4  H    0.247913
     5  H    0.249390
     6  H    0.244203
     7  Cl  -0.596927
     8  C    0.184511
     9  N   -0.626928
 Sum of Mulliken charges =  -1.00000

 Dipole moment (field-independent basis, Debye):
    X=             -0.2375    Y=              5.4675    Z=             -2.8643  Tot=              6.1770
 Quadrupole moment (field-independent basis, Debye-Ang):
   XX=            -66.6847   YY=            -52.4528   ZZ=            -48.9512
   XY=              1.8582   XZ=              0.8949   YZ=             -5.0827

 Normal termination of Gaussian 16 at Wed Jan  8 01:00:20 2020.
