 Gaussian 16, Revision A.03,
 Gaussian 16:  AS64L-G16RevA.03 25-Dec-2016

 ----------------------------------------------------------------------
 #p opt=modredundant b3lyp/6-31+g(d) scrf=(smd, solvent=tetrahydrofuran
 )
 ----------------------------------------------------------------------

 -----
 title
 -----
 Symbolic Z-matrix:
 Charge = -1 Multiplicity = 1

 SCF Done:  E(RB3LYP) =  -706.279791232     A.U. after   14 cycles
 SCF Done:  E(RB3LYP) =  -706.292526400     A.U. after   13 cycles
 SCF Done:  E(RB3LYP) =  -706.294528613     A.U. after   13 cycles
 SCF Done:  E(RB3LYP) =  -706.294846354     A.U. after   13 cycles
 SCF Done:  E(RB3LYP) =  -706.294980044     A.U. after   11 cycles
 SCF Done:  E(RB3LYP) =  -706.294998471     A.U. after   12 cycles
 SCF Done:  E(RB3LYP) =  -706.295007949     A.U. after   11 cycles
 SCF Done:  E(RB3LYP) =  -706.295014572     A.U. after   10 cycles
 Optimization completed.
    -- Stationary point found.

                         Standard orientation:
 ---------------------------------------------------------------------
 Center     Atomic      Atomic             Coordinates (Angstroms)
 Number     Number       Type             X           Y           Z
 ---------------------------------------------------------------------
      1          6           0        0.024010    0.192768    0.160669
      2          8           0        0.080357    0.581348    1.495437
      3          6           0       -0.083714    1.501299   -0.758015
      4          1           0       -0.122112    1.261752   -1.828588
      5          1           0       -1.001549    2.015145   -0.455612
      6          1           0        0.777310    2.143802   -0.553449
      7         17           0       -1.243082   -0.727063   -0.168558
      8          6           0        1.074952   -0.336625   -0.074415
      9          7           0        2.106343   -0.836583   -0.318542
 ---------------------------------------------------------------------

 The electronic state is 1-A.
 Alpha  occ. eigenvalues -- -101.51494 -19.03419 -14.30369 -10.23658 -10.19357
 Alpha  occ. eigenvalues --  -10.16114  -9.43627  -7.19945  -7.19025  -7.18997
 Alpha  occ. eigenvalues --   -0.96905  -0.86729  -0.83206  -0.71683  -0.66096
 Alpha  occ. eigenvalues --   -0.48828  -0.44134  -0.41208  -0.37694  -0.36382
 Alpha  occ. eigenvalues --   -0.34967  -0.30756  -0.29779  -0.28127  -0.26251
 Alpha  occ. eigenvalues --   -0.18295  -0.17630
 Alpha virt. eigenvalues --    0.02704   0.02829   0.04168   0.05332   0.06245
 Alpha virt. eigenvalues --    0.07329   0.08192   0.09753   0.10008   0.10308
 Alpha virt. eigenvalues --    0.10548   0.11542   0.14103   0.14526   0.15082

 Mulliken charges:
               1
     1  C   -0.191556
     2  O   -0.708001
     3  C   -0.632426
     4  H    0.214058
     5  H    0.226446
     6  H    0.220972
     7  Cl   0.064016
     8  C    0.575227
     9  N   -0.768735
 Sum of Mulliken charges =  -1.00000

 Dipole moment (field-independent basis, Debye):
    X=             -3.7255    Y=              1.1653    Z=             -4.7364  Tot=              6.1377
 Quadrupole moment (field-independent basis, Debye-Ang):
   XX=            -58.1913   YY=            -48.2372   ZZ=            -54.8539
   XY=              4.2081   XZ=              1.2599   YZ=             -4.5922

 Normal termination of Gaussian 16 at Tue Jan  7 22:57:41 2020.
