 Gaussian 16, Revision A.03,
 Gaussian 16:  AS64L-G16RevA.03 25-Dec-2016

 ----------------------------------------------------------------------
 #p opt=modredundant b3lyp/6-31+g(d) scrf=(smd, solvent=tetrahydrofuran
 )
 ----------------------------------------------------------------------

 -----
 title
 -----
 Symbolic Z-matrix:
 Charge = -1 Multiplicity = 1

 SCF Done:  E(RB3LYP) =  -706.416784019     A.U. after   14 cycles
 SCF Done:  E(RB3LYP) =  -706.436653629     A.U. after   12 cycles
 SCF Done:  E(RB3LYP) =  -706.443148025     A.U. after   13 cycles
 SCF Done:  E(RB3LYP) =  -706.443618780     A.U. after   12 cycles
 SCF Done:  E(RB3LYP) =  -706.443657542     A.U. after   10 cycles
 SCF Done:  E(RB3LYP) =  -706.443662381     A.U. after   10 cycles
 SCF Done:  E(RB3LYP) =  -706.443662560     A.U. after    8 cycles
 Optimization completed.
    -- Stationary point found.

                         Standard orientation:
 ---------------------------------------------------------------------
 Center     Atomic      Atomic             Coordinates (Angstroms)
 Number     Number       Type             X           Y           Z
 ---------------------------------------------------------------------
      1          6           0        0.318105    0.582536    0.207064
      2          8           0        0.361273    1.046793    1.354411
      3          6           0        0.088337    1.467043   -1.008075
      4          1           0       -0.074326    0.893392   -1.923119
      5          1           0       -0.769702    2.118214   -0.822071
      6          1           0        0.983815    2.093072   -1.133214
      7         17           0       -1.568480   -0.715212   -0.008911
      8          6           0        1.202849   -0.597369   -0.066895
      9          7           0        1.996921   -1.433384   -0.228282
 ---------------------------------------------------------------------

 The electronic state is 1-A.
 Alpha  occ. eigenvalues -- -101.44347 -19.11114 -14.33074 -10.29230 -10.22276
 Alpha  occ. eigenvalues --  -10.16859  -9.35888  -7.11868  -7.11541  -7.11522
 Alpha  occ. eigenvalues --   -1.01253  -0.89523  -0.74297  -0.69849  -0.61971
 Alpha  occ. eigenvalues --   -0.46308  -0.42730  -0.41782  -0.38323  -0.36391
 Alpha  occ. eigenvalues --   -0.35839  -0.32694  -0.31892  -0.24364  -0.23967
 Alpha  occ. eigenvalues --   -0.23392  -0.22845
 Alpha virt. eigenvalues --   -0.02212   0.02603   0.03716   0.04627   0.05800
 Alpha virt. eigenvalues --    0.07085   0.07498   0.08865   0.09723   0.10355
 Alpha virt. eigenvalues --    0.10620   0.11421   0.12989   0.13805   0.14413

 Mulliken charges:
               1
     1  C    0.121988
     2  O   -0.441218
     3  C   -0.605541
     4  H    0.234038
     5  H    0.244314
     6  H    0.233709
     7  Cl  -0.597076
     8  C    0.428510
     9  N   -0.618726
 Sum of Mulliken charges =  -1.00000

 Dipole moment (field-independent basis, Debye):
    X=              1.4689    Y=              4.1802    Z=             -3.1375  Tot=              5.4292
 Quadrupole moment (field-independent basis, Debye-Ang):
   XX=            -62.2365   YY=            -53.4490   ZZ=            -50.0131
   XY=              1.9726   XZ=             -0.2329   YZ=             -5.3699

 Normal termination of Gaussian 16 at Wed Jan  8 00:57:12 2020.
