 Gaussian 16, Revision A.03,
 Gaussian 16:  AS64L-G16RevA.03 25-Dec-2016

 ----------------------------------------------------------------------
 #p opt=modredundant b3lyp/6-31+g(d) scrf=(smd, solvent=tetrahydrofuran
 )
 ----------------------------------------------------------------------

 -----
 title
 -----
 Symbolic Z-matrix:
 Charge = -1 Multiplicity = 1

 SCF Done:  E(RB3LYP) =  -706.379887270     A.U. after   14 cycles
 SCF Done:  E(RB3LYP) =  -706.409463824     A.U. after   13 cycles
 SCF Done:  E(RB3LYP) =  -706.420971162     A.U. after   13 cycles
 SCF Done:  E(RB3LYP) =  -706.424064933     A.U. after   12 cycles
 SCF Done:  E(RB3LYP) =  -706.424321056     A.U. after   11 cycles
 SCF Done:  E(RB3LYP) =  -706.424351482     A.U. after   10 cycles
 SCF Done:  E(RB3LYP) =  -706.424369516     A.U. after   10 cycles
 SCF Done:  E(RB3LYP) =  -706.424374235     A.U. after   10 cycles
 SCF Done:  E(RB3LYP) =  -706.424374505     A.U. after    9 cycles
 Optimization completed.
    -- Stationary point found.

                         Standard orientation:
 ---------------------------------------------------------------------
 Center     Atomic      Atomic             Coordinates (Angstroms)
 Number     Number       Type             X           Y           Z
 ---------------------------------------------------------------------
      1          6           0        0.355207    0.823977    0.226442
      2          8           0        0.295270    1.221749    1.337706
      3          6           0        0.119570    1.457243   -1.098701
      4          1           0       -0.046961    0.709923   -1.871940
      5          1           0       -0.735695    2.134759   -1.025348
      6          1           0        1.025147    2.034364   -1.336673
      7         17           0       -1.789723   -0.799577   -0.004523
      8          6           0        1.508167   -0.663122   -0.036653
      9          7           0        2.274711   -1.538402   -0.133904
 ---------------------------------------------------------------------

 The electronic state is 1-A.
 Alpha  occ. eigenvalues -- -101.42320 -19.18145 -14.31822 -10.33811 -10.20579
 Alpha  occ. eigenvalues --  -10.19406  -9.33705  -7.09570  -7.09437  -7.09430
 Alpha  occ. eigenvalues --   -1.08770  -0.87798  -0.75685  -0.67765  -0.55716
 Alpha  occ. eigenvalues --   -0.48927  -0.45664  -0.45029  -0.39854  -0.37856
 Alpha  occ. eigenvalues --   -0.36756  -0.32002  -0.31867  -0.28440  -0.22265
 Alpha  occ. eigenvalues --   -0.21947  -0.21921
 Alpha virt. eigenvalues --   -0.03086   0.00972   0.02743   0.04374   0.05169
 Alpha virt. eigenvalues --    0.06443   0.06706   0.07802   0.09069   0.09804
 Alpha virt. eigenvalues --    0.10316   0.10521   0.10808   0.12977   0.13587

 Mulliken charges:
               1
     1  C    0.435336
     2  O   -0.275416
     3  C   -0.664489
     4  H    0.273552
     5  H    0.264627
     6  H    0.266402
     7  Cl  -0.816777
     8  C    0.119033
     9  N   -0.602267
 Sum of Mulliken charges =  -1.00000

 Dipole moment (field-independent basis, Debye):
    X=              2.8781    Y=              7.7189    Z=             -2.7197  Tot=              8.6754
 Quadrupole moment (field-independent basis, Debye-Ang):
   XX=            -71.3833   YY=            -53.4758   ZZ=            -47.3918
   XY=              2.5700   XZ=              0.1190   YZ=             -4.9973

 Normal termination of Gaussian 16 at Wed Jan  8 01:45:14 2020.
