 Gaussian 16, Revision A.03,
 Gaussian 16:  AS64L-G16RevA.03 25-Dec-2016

 ----------------------------------------------------------------------
 #p opt=modredundant b3lyp/6-31+g(d) scrf=(smd, solvent=tetrahydrofuran
 )
 ----------------------------------------------------------------------

 -----
 title
 -----
 Symbolic Z-matrix:
 Charge = -1 Multiplicity = 1

 SCF Done:  E(RB3LYP) =  -706.390534272     A.U. after   14 cycles
 SCF Done:  E(RB3LYP) =  -706.393961468     A.U. after   11 cycles
 SCF Done:  E(RB3LYP) =  -706.394227950     A.U. after   11 cycles
 SCF Done:  E(RB3LYP) =  -706.394257922     A.U. after   10 cycles
 SCF Done:  E(RB3LYP) =  -706.394259243     A.U. after    9 cycles
 SCF Done:  E(RB3LYP) =  -706.394259848     A.U. after    8 cycles
 SCF Done:  E(RB3LYP) =  -706.394259953     A.U. after    9 cycles
 Optimization completed.
    -- Stationary point found.

                         Standard orientation:
 ---------------------------------------------------------------------
 Center     Atomic      Atomic             Coordinates (Angstroms)
 Number     Number       Type             X           Y           Z
 ---------------------------------------------------------------------
      1          6           0       -0.257729    0.381476    0.234833
      2          8           0       -0.313036    0.752283    1.429396
      3          6           0       -0.361482    1.442105   -0.872754
      4          1           0       -0.159176    1.033227   -1.867559
      5          1           0       -1.379407    1.854658   -0.854089
      6          1           0        0.347389    2.247689   -0.658051
      7         17           0       -1.178847   -0.988058   -0.172494
      8          6           0        1.500231   -0.250592   -0.111673
      9          7           0        2.635681   -0.542111   -0.089356
 ---------------------------------------------------------------------

 The electronic state is 1-A.
 Alpha  occ. eigenvalues -- -101.51012 -19.07515 -14.29177 -10.29128 -10.16913
 Alpha  occ. eigenvalues --  -10.16045  -9.42939  -7.19221  -7.18387  -7.18355
 Alpha  occ. eigenvalues --   -0.98805  -0.85207  -0.82785  -0.70136  -0.53519
 Alpha  occ. eigenvalues --   -0.46122  -0.42855  -0.40349  -0.36982  -0.36211
 Alpha  occ. eigenvalues --   -0.34210  -0.30559  -0.29388  -0.28418  -0.27310
 Alpha  occ. eigenvalues --   -0.22709  -0.21376
 Alpha virt. eigenvalues --    0.01732   0.03386   0.04956   0.06016   0.06327
 Alpha virt. eigenvalues --    0.07592   0.07814   0.08742   0.09596   0.10034
 Alpha virt. eigenvalues --    0.10291   0.10860   0.12794   0.13959   0.14071

 Mulliken charges:
               1
     1  C    0.041102
     2  O   -0.488998
     3  C   -0.567976
     4  H    0.222615
     5  H    0.221760
     6  H    0.229673
     7  Cl  -0.004882
     8  C    0.030432
     9  N   -0.683727
 Sum of Mulliken charges =  -1.00000

 Dipole moment (field-independent basis, Debye):
    X=             -5.0156    Y=              1.4759    Z=             -3.5965  Tot=              6.3458
 Quadrupole moment (field-independent basis, Debye-Ang):
   XX=            -66.8224   YY=            -47.7885   ZZ=            -51.8038
   XY=              3.4654   XZ=              2.0946   YZ=             -3.9827

 Normal termination of Gaussian 16 at Tue Jan  7 23:20:03 2020.
