 Gaussian 16, Revision A.03,
 Gaussian 16:  AS64L-G16RevA.03 25-Dec-2016

 ----------------------------------------------------------------------
 #p opt=modredundant b3lyp/6-31+g(d) scrf=(smd, solvent=tetrahydrofuran
 )
 ----------------------------------------------------------------------

 -----
 title
 -----
 Symbolic Z-matrix:
 Charge = -1 Multiplicity = 1

 SCF Done:  E(RB3LYP) =  -706.373543823     A.U. after   15 cycles
 SCF Done:  E(RB3LYP) =  -706.405440867     A.U. after   13 cycles
 SCF Done:  E(RB3LYP) =  -706.419924916     A.U. after   13 cycles
 SCF Done:  E(RB3LYP) =  -706.424614026     A.U. after   12 cycles
 SCF Done:  E(RB3LYP) =  -706.425065493     A.U. after   11 cycles
 SCF Done:  E(RB3LYP) =  -706.425121538     A.U. after   10 cycles
 SCF Done:  E(RB3LYP) =  -706.425137064     A.U. after   10 cycles
 SCF Done:  E(RB3LYP) =  -706.425137361     A.U. after   10 cycles
 SCF Done:  E(RB3LYP) =  -706.425136306     A.U. after    9 cycles
 SCF Done:  E(RB3LYP) =  -706.425135643     A.U. after    9 cycles
 SCF Done:  E(RB3LYP) =  -706.425137529     A.U. after    9 cycles
 SCF Done:  E(RB3LYP) =  -706.425135682     A.U. after    9 cycles
 Optimization completed.
    -- Stationary point found.

                         Standard orientation:
 ---------------------------------------------------------------------
 Center     Atomic      Atomic             Coordinates (Angstroms)
 Number     Number       Type             X           Y           Z
 ---------------------------------------------------------------------
      1          6           0        0.495946    0.822858    0.222453
      2          8           0        0.438113    1.202266    1.336234
      3          6           0        0.245924    1.440222   -1.102319
      4          1           0       -0.029657    0.688010   -1.839295
      5          1           0       -0.536640    2.197522   -1.005751
      6          1           0        1.188292    1.918365   -1.407894
      7         17           0       -1.965903   -0.694133    0.003272
      8          6           0        1.531197   -0.748025   -0.043224
      9          7           0        2.236435   -1.673156   -0.136289
 ---------------------------------------------------------------------

 The electronic state is 1-A.
 Alpha  occ. eigenvalues -- -101.41694 -19.19291 -14.32265 -10.34441 -10.21018
 Alpha  occ. eigenvalues --  -10.19799  -9.33047  -7.08874  -7.08803  -7.08797
 Alpha  occ. eigenvalues --   -1.09880  -0.88205  -0.76261  -0.67017  -0.56275
 Alpha  occ. eigenvalues --   -0.49645  -0.46416  -0.45639  -0.40262  -0.38466
 Alpha  occ. eigenvalues --   -0.37216  -0.32353  -0.32231  -0.29094  -0.21644
 Alpha  occ. eigenvalues --   -0.21442  -0.21409
 Alpha virt. eigenvalues --   -0.03713   0.00389   0.02621   0.04056   0.05048
 Alpha virt. eigenvalues --    0.06340   0.06585   0.07621   0.08997   0.09706
 Alpha virt. eigenvalues --    0.10194   0.10380   0.10721   0.12867   0.13484

 Mulliken charges:
               1
     1  C    0.513710
     2  O   -0.270607
     3  C   -0.704478
     4  H    0.281720
     5  H    0.267317
     6  H    0.273208
     7  Cl  -0.882571
     8  C    0.110379
     9  N   -0.588677
 Sum of Mulliken charges =  -1.00000

 Dipole moment (field-independent basis, Debye):
    X=              4.5738    Y=              7.9296    Z=             -2.7448  Tot=              9.5568
 Quadrupole moment (field-independent basis, Debye-Ang):
   XX=            -74.2214   YY=            -53.5473   ZZ=            -47.1167
   XY=              3.0480   XZ=             -0.2488   YZ=             -4.9185

 Normal termination of Gaussian 16 at Wed Jan  8 02:11:50 2020.
