 Gaussian 16, Revision A.03,
 Gaussian 16:  AS64L-G16RevA.03 25-Dec-2016

 ----------------------------------------------------------------------
 #p opt=modredundant b3lyp/6-31+g(d) scrf=(smd, solvent=tetrahydrofuran
 )
 ----------------------------------------------------------------------

 -----
 title
 -----
 Symbolic Z-matrix:
 Charge = -1 Multiplicity = 1

 SCF Done:  E(RB3LYP) =  -706.362207730     A.U. after   14 cycles
 SCF Done:  E(RB3LYP) =  -706.396639120     A.U. after   13 cycles
 SCF Done:  E(RB3LYP) =  -706.404990173     A.U. after   12 cycles
 SCF Done:  E(RB3LYP) =  -706.408211063     A.U. after   12 cycles
 SCF Done:  E(RB3LYP) =  -706.408588503     A.U. after   11 cycles
 SCF Done:  E(RB3LYP) =  -706.408656091     A.U. after    9 cycles
 SCF Done:  E(RB3LYP) =  -706.408697170     A.U. after   10 cycles
 SCF Done:  E(RB3LYP) =  -706.408715375     A.U. after   10 cycles
 SCF Done:  E(RB3LYP) =  -706.408716504     A.U. after   10 cycles
 SCF Done:  E(RB3LYP) =  -706.408717858     A.U. after   10 cycles
 SCF Done:  E(RB3LYP) =  -706.408722976     A.U. after    9 cycles
 SCF Done:  E(RB3LYP) =  -706.408732203     A.U. after    9 cycles
 SCF Done:  E(RB3LYP) =  -706.408735080     A.U. after    9 cycles
 Optimization completed.
    -- Stationary point found.

                         Standard orientation:
 ---------------------------------------------------------------------
 Center     Atomic      Atomic             Coordinates (Angstroms)
 Number     Number       Type             X           Y           Z
 ---------------------------------------------------------------------
      1          6           0       -0.460950    0.734644    0.268592
      2          8           0       -0.330682    0.987066    1.396774
      3          6           0       -0.297274    1.389665   -1.046535
      4          1           0       -0.012617    0.667904   -1.808900
      5          1           0       -1.268609    1.830745   -1.305550
      6          1           0        0.460427    2.172153   -0.943681
      7         17           0       -1.673028   -1.063108   -0.104172
      8          6           0        2.211053   -0.333232   -0.092022
      9          7           0        3.312965   -0.748708   -0.017907
 ---------------------------------------------------------------------

 The electronic state is 1-A.
 Alpha  occ. eigenvalues -- -101.48982 -19.21969 -14.26155 -10.35539 -10.20966
 Alpha  occ. eigenvalues --  -10.12618  -9.40426  -7.16583  -7.16009  -7.15969
 Alpha  occ. eigenvalues --   -1.12560  -0.81746  -0.78162  -0.74066  -0.55253
 Alpha  occ. eigenvalues --   -0.48029  -0.47768  -0.47229  -0.40046  -0.39882
 Alpha  occ. eigenvalues --   -0.35318  -0.28549  -0.27545  -0.27100  -0.26728
 Alpha  occ. eigenvalues --   -0.26679  -0.23493
 Alpha virt. eigenvalues --   -0.04402  -0.02486   0.02853   0.04722   0.05176
 Alpha virt. eigenvalues --    0.05546   0.08015   0.08218   0.08885   0.09610
 Alpha virt. eigenvalues --    0.10033   0.11307   0.11544   0.12766   0.13334

 Mulliken charges:
               1
     1  C    0.350186
     2  O   -0.194894
     3  C   -0.674913
     4  H    0.300582
     5  H    0.282202
     6  H    0.279405
     7  Cl  -0.397200
     8  C   -0.287426
     9  N   -0.657942
 Sum of Mulliken charges =  -1.00000

 Dipole moment (field-independent basis, Debye):
    X=             -9.5594    Y=              7.1092    Z=             -2.2971  Tot=             12.1326
 Quadrupole moment (field-independent basis, Debye-Ang):
   XX=            -91.1949   YY=            -47.0588   ZZ=            -46.4084
   XY=              3.6450   XZ=              0.9715   YZ=             -3.7976

 Normal termination of Gaussian 16 at Wed Jan  8 01:55:46 2020.
