 Gaussian 16, Revision A.03,
 Gaussian 16:  AS64L-G16RevA.03 25-Dec-2016

 ----------------------------------------------------------------------
 #p opt=modredundant b3lyp/6-31+g(d) scrf=(smd, solvent=tetrahydrofuran
 )
 ----------------------------------------------------------------------

 -----
 title
 -----
 Symbolic Z-matrix:
 Charge = -1 Multiplicity = 1

 SCF Done:  E(RB3LYP) =  -706.339977679     A.U. after   15 cycles
 SCF Done:  E(RB3LYP) =  -706.377363350     A.U. after   13 cycles
 SCF Done:  E(RB3LYP) =  -706.390130001     A.U. after   12 cycles
 SCF Done:  E(RB3LYP) =  -706.395983818     A.U. after   12 cycles
 SCF Done:  E(RB3LYP) =  -706.397406063     A.U. after   11 cycles
 SCF Done:  E(RB3LYP) =  -706.397515209     A.U. after   11 cycles
 SCF Done:  E(RB3LYP) =  -706.397554426     A.U. after   10 cycles
 SCF Done:  E(RB3LYP) =  -706.397577097     A.U. after   10 cycles
 SCF Done:  E(RB3LYP) =  -706.397597037     A.U. after   10 cycles
 SCF Done:  E(RB3LYP) =  -706.397601779     A.U. after   10 cycles
 SCF Done:  E(RB3LYP) =  -706.397602950     A.U. after    8 cycles
 SCF Done:  E(RB3LYP) =  -706.397603850     A.U. after    8 cycles
 Optimization completed.
    -- Stationary point found.

                         Standard orientation:
 ---------------------------------------------------------------------
 Center     Atomic      Atomic             Coordinates (Angstroms)
 Number     Number       Type             X           Y           Z
 ---------------------------------------------------------------------
      1          6           0        0.176037    0.948708    0.231937
      2          8           0        0.088927    1.228670    1.342087
      3          6           0        0.048456    1.308193   -1.178417
      4          1           0        0.001522    0.416447   -1.798402
      5          1           0       -0.861657    1.910036   -1.282558
      6          1           0        0.940168    1.898276   -1.428596
      7         17           0       -2.052200   -0.891230   -0.012167
      8          6           0        2.015547   -0.576132    0.005958
      9          7           0        2.950816   -1.283974   -0.053881
 ---------------------------------------------------------------------

 The electronic state is 1-A.
 Alpha  occ. eigenvalues -- -101.42459 -19.25509 -14.28865 -10.38019 -10.22635
 Alpha  occ. eigenvalues --  -10.16290  -9.33801  -7.09655  -7.09545  -7.09539
 Alpha  occ. eigenvalues --   -1.16099  -0.84576  -0.79477  -0.67725  -0.57158
 Alpha  occ. eigenvalues --   -0.50306  -0.50076  -0.49226  -0.41955  -0.41669
 Alpha  occ. eigenvalues --   -0.37378  -0.29225  -0.29190  -0.27027  -0.22502
 Alpha  occ. eigenvalues --   -0.22078  -0.22046
 Alpha virt. eigenvalues --   -0.06289  -0.03675   0.02285   0.04737   0.04826
 Alpha virt. eigenvalues --    0.05363   0.07010   0.07589   0.08661   0.09785
 Alpha virt. eigenvalues --    0.09961   0.10458   0.10912   0.12572   0.13382

 Mulliken charges:
               1
     1  C    0.525486
     2  O   -0.155516
     3  C   -0.641786
     4  H    0.323356
     5  H    0.296457
     6  H    0.301703
     7  Cl  -0.855053
     8  C   -0.159614
     9  N   -0.635033
 Sum of Mulliken charges =  -1.00000

 Dipole moment (field-independent basis, Debye):
    X=             -0.0120    Y=             10.5514    Z=             -2.7515  Tot=             10.9042
 Quadrupole moment (field-independent basis, Debye-Ang):
   XX=            -90.5706   YY=            -50.6538   ZZ=            -44.7817
   XY=              3.6397   XZ=              0.2413   YZ=             -4.2052

 Normal termination of Gaussian 16 at Wed Jan  8 02:14:01 2020.
