 Gaussian 16, Revision A.03,
 Gaussian 16:  AS64L-G16RevA.03 25-Dec-2016

 ----------------------------------------------------------------------
 #p opt=modredundant b3lyp/6-31+g(d) scrf=(smd, solvent=tetrahydrofuran
 )
 ----------------------------------------------------------------------

 -----
 title
 -----
 Symbolic Z-matrix:
 Charge = -1 Multiplicity = 1

 SCF Done:  E(RB3LYP) =  -706.335720129     A.U. after   14 cycles
 SCF Done:  E(RB3LYP) =  -706.337717755     A.U. after   12 cycles
 SCF Done:  E(RB3LYP) =  -706.338007629     A.U. after   11 cycles
 SCF Done:  E(RB3LYP) =  -706.338040309     A.U. after   11 cycles
 SCF Done:  E(RB3LYP) =  -706.338043045     A.U. after   10 cycles
 SCF Done:  E(RB3LYP) =  -706.338045712     A.U. after    9 cycles
 Optimization completed.
    -- Stationary point found.

                         Standard orientation:
 ---------------------------------------------------------------------
 Center     Atomic      Atomic             Coordinates (Angstroms)
 Number     Number       Type             X           Y           Z
 ---------------------------------------------------------------------
      1          6           0       -0.183174    0.215888    0.190372
      2          8           0       -0.233137    0.561876    1.480156
      3          6           0       -0.320553    1.474658   -0.750293
      4          1           0       -0.196638    1.230673   -1.814465
      5          1           0       -1.325051    1.887068   -0.591267
      6          1           0        0.419737    2.225498   -0.458902
      7         17           0       -1.124474   -0.875711   -0.224800
      8          6           0        1.319682   -0.249230   -0.101328
      9          7           0        2.455338   -0.514152   -0.169647
 ---------------------------------------------------------------------

 The electronic state is 1-A.
 Alpha  occ. eigenvalues -- -101.51708 -19.02809 -14.30866 -10.26746 -10.19768
 Alpha  occ. eigenvalues --  -10.15240  -9.44170  -7.20465  -7.19542  -7.19503
 Alpha  occ. eigenvalues --   -0.97002  -0.87169  -0.84730  -0.69123  -0.58230
 Alpha  occ. eigenvalues --   -0.49146  -0.42765  -0.40193  -0.37158  -0.35456
 Alpha  occ. eigenvalues --   -0.35215  -0.31609  -0.30803  -0.27937  -0.26753
 Alpha  occ. eigenvalues --   -0.18565  -0.17630
 Alpha virt. eigenvalues --    0.02480   0.04416   0.04871   0.05683   0.06606
 Alpha virt. eigenvalues --    0.07332   0.07581   0.09472   0.09573   0.10110
 Alpha virt. eigenvalues --    0.10206   0.11405   0.13945   0.14265   0.15173

 Mulliken charges:
               1
     1  C    0.036945
     2  O   -0.684986
     3  C   -0.636745
     4  H    0.206163
     5  H    0.214646
     6  H    0.220274
     7  Cl   0.105774
     8  C    0.233554
     9  N   -0.695626
 Sum of Mulliken charges =  -1.00000

 Dipole moment (field-independent basis, Debye):
    X=             -3.7462    Y=              0.1638    Z=             -4.8594  Tot=              6.1380
 Quadrupole moment (field-independent basis, Debye-Ang):
   XX=            -61.5577   YY=            -47.2691   ZZ=            -54.8167
   XY=              3.3412   XZ=              2.4948   YZ=             -3.6970

 Normal termination of Gaussian 16 at Tue Jan  7 22:50:51 2020.
