 Gaussian 16, Revision A.03,
 Gaussian 16:  AS64L-G16RevA.03 25-Dec-2016

 ----------------------------------------------------------------------
 #p opt=modredundant b3lyp/6-31+g(d) scrf=(smd, solvent=tetrahydrofuran
 )
 ----------------------------------------------------------------------

 -----
 title
 -----
 Symbolic Z-matrix:
 Charge = -1 Multiplicity = 1

 SCF Done:  E(RB3LYP) =  -706.403314284     A.U. after   14 cycles
 SCF Done:  E(RB3LYP) =  -706.430829267     A.U. after   13 cycles
 SCF Done:  E(RB3LYP) =  -706.446601072     A.U. after   13 cycles
 SCF Done:  E(RB3LYP) =  -706.448206893     A.U. after   12 cycles
 SCF Done:  E(RB3LYP) =  -706.448416406     A.U. after   11 cycles
 SCF Done:  E(RB3LYP) =  -706.448334120     A.U. after   11 cycles
 SCF Done:  E(RB3LYP) =  -706.448453125     A.U. after   11 cycles
 SCF Done:  E(RB3LYP) =  -706.448459026     A.U. after   10 cycles
 SCF Done:  E(RB3LYP) =  -706.448458854     A.U. after    9 cycles
 SCF Done:  E(RB3LYP) =  -706.448459991     A.U. after    8 cycles
 SCF Done:  E(RB3LYP) =  -706.448461494     A.U. after    8 cycles
 Optimization completed.
    -- Stationary point found.

                         Standard orientation:
 ---------------------------------------------------------------------
 Center     Atomic      Atomic             Coordinates (Angstroms)
 Number     Number       Type             X           Y           Z
 ---------------------------------------------------------------------
      1          6           0        0.614538    0.623883    0.200616
      2          8           0        0.709805    1.049775    1.330248
      3          6           0        0.442352    1.441245   -1.046628
      4          1           0        0.064723    0.846246   -1.878707
      5          1           0       -0.229116    2.279599   -0.845083
      6          1           0        1.434082    1.838005   -1.312197
      7         17           0       -1.865124   -0.429565    0.023056
      8          6           0        1.135650   -0.864949   -0.067383
      9          7           0        1.657676   -1.894359   -0.216796
 ---------------------------------------------------------------------

 The electronic state is 1-A.
 Alpha  occ. eigenvalues -- -101.42292 -19.15052 -14.33652 -10.31525 -10.22914
 Alpha  occ. eigenvalues --  -10.17987  -9.33689  -7.09552  -7.09421  -7.09412
 Alpha  occ. eigenvalues --   -1.05260  -0.89880  -0.74669  -0.67792  -0.60830
 Alpha  occ. eigenvalues --   -0.48238  -0.43946  -0.43728  -0.39432  -0.37089
 Alpha  occ. eigenvalues --   -0.36457  -0.33391  -0.33118  -0.26942  -0.22177
 Alpha  occ. eigenvalues --   -0.21928  -0.21898
 Alpha virt. eigenvalues --   -0.03913   0.02426   0.03347   0.04066   0.05639
 Alpha virt. eigenvalues --    0.06818   0.07178   0.08708   0.09606   0.10261
 Alpha virt. eigenvalues --    0.10614   0.10928   0.12382   0.13580   0.13934

 Mulliken charges:
               1
     1  C    0.318794
     2  O   -0.366186
     3  C   -0.661130
     4  H    0.253114
     5  H    0.255389
     6  H    0.252322
     7  Cl  -0.812935
     8  C    0.336826
     9  N   -0.576194
 Sum of Mulliken charges =  -1.00000

 Dipole moment (field-independent basis, Debye):
    X=              5.0374    Y=              5.2028    Z=             -2.9506  Tot=              7.8199
 Quadrupole moment (field-independent basis, Debye-Ang):
   XX=            -65.7573   YY=            -54.6359   ZZ=            -48.6937
   XY=              2.6912   XZ=             -1.2496   YZ=             -5.1223

 Normal termination of Gaussian 16 at Wed Jan  8 01:49:48 2020.
