 Gaussian 16, Revision A.03,
 Gaussian 16:  AS64L-G16RevA.03 25-Dec-2016

 ----------------------------------------------------------------------
 #p opt=modredundant b3lyp/6-31+g(d) scrf=(smd, solvent=tetrahydrofuran
 )
 ----------------------------------------------------------------------

 -----
 title
 -----
 Symbolic Z-matrix:
 Charge = -1 Multiplicity = 1

 SCF Done:  E(RB3LYP) =  -706.370764682     A.U. after   15 cycles
 SCF Done:  E(RB3LYP) =  -706.403573266     A.U. after   13 cycles
 SCF Done:  E(RB3LYP) =  -706.419273971     A.U. after   13 cycles
 SCF Done:  E(RB3LYP) =  -706.424679465     A.U. after   12 cycles
 SCF Done:  E(RB3LYP) =  -706.425345353     A.U. after   11 cycles
 SCF Done:  E(RB3LYP) =  -706.425439652     A.U. after   10 cycles
 SCF Done:  E(RB3LYP) =  -706.425457178     A.U. after   10 cycles
 SCF Done:  E(RB3LYP) =  -706.425459024     A.U. after    9 cycles
 SCF Done:  E(RB3LYP) =  -706.425459198     A.U. after    9 cycles
 Optimization completed.
    -- Stationary point found.

                         Standard orientation:
 ---------------------------------------------------------------------
 Center     Atomic      Atomic             Coordinates (Angstroms)
 Number     Number       Type             X           Y           Z
 ---------------------------------------------------------------------
      1          6           0        0.574606    0.828342    0.217642
      2          8           0        0.526873    1.212879    1.328846
      3          6           0        0.320375    1.427907   -1.112338
      4          1           0       -0.057283    0.677822   -1.805813
      5          1           0       -0.387711    2.254333   -1.007237
      6          1           0        1.284862    1.806012   -1.480793
      7         17           0       -2.037004   -0.633585    0.012064
      8          6           0        1.512659   -0.803961   -0.038572
      9          7           0        2.161198   -1.769141   -0.134629
 ---------------------------------------------------------------------

 The electronic state is 1-A.
 Alpha  occ. eigenvalues -- -101.41483 -19.19752 -14.32424 -10.34695 -10.21189
 Alpha  occ. eigenvalues --  -10.19951  -9.32826  -7.08639  -7.08590  -7.08585
 Alpha  occ. eigenvalues --   -1.10317  -0.88353  -0.76519  -0.66768  -0.56508
 Alpha  occ. eigenvalues --   -0.49940  -0.46712  -0.45912  -0.40433  -0.38737
 Alpha  occ. eigenvalues --   -0.37384  -0.32488  -0.32372  -0.29363  -0.21421
 Alpha  occ. eigenvalues --   -0.21263  -0.21240
 Alpha virt. eigenvalues --   -0.03936   0.00170   0.02567   0.03923   0.05005
 Alpha virt. eigenvalues --    0.06276   0.06536   0.07522   0.08967   0.09663
 Alpha virt. eigenvalues --    0.10072   0.10374   0.10680   0.12862   0.13404

 Mulliken charges:
               1
     1  C    0.549935
     2  O   -0.272551
     3  C   -0.724216
     4  H    0.286091
     5  H    0.266619
     6  H    0.275848
     7  Cl  -0.906081
     8  C    0.108079
     9  N   -0.583723
 Sum of Mulliken charges =  -1.00000

 Dipole moment (field-independent basis, Debye):
    X=              5.4088    Y=              7.9349    Z=             -2.8091  Tot=             10.0055
 Quadrupole moment (field-independent basis, Debye-Ang):
   XX=            -74.8471   YY=            -53.9557   ZZ=            -46.9522
   XY=              3.4500   XZ=             -0.4605   YZ=             -4.9200

 Normal termination of Gaussian 16 at Wed Jan  8 02:25:07 2020.
