 Gaussian 16, Revision A.03,
 Gaussian 16:  AS64L-G16RevA.03 25-Dec-2016

 ----------------------------------------------------------------------
 #p opt=modredundant b3lyp/6-31+g(d) scrf=(smd, solvent=tetrahydrofuran
 )
 ----------------------------------------------------------------------

 -----
 title
 -----
 Symbolic Z-matrix:
 Charge = -1 Multiplicity = 1

 SCF Done:  E(RB3LYP) =  -706.395768776     A.U. after   14 cycles
 SCF Done:  E(RB3LYP) =  -706.403762545     A.U. after   12 cycles
 SCF Done:  E(RB3LYP) =  -706.404387722     A.U. after   12 cycles
 SCF Done:  E(RB3LYP) =  -706.404444570     A.U. after   10 cycles
 SCF Done:  E(RB3LYP) =  -706.404451621     A.U. after   10 cycles
 SCF Done:  E(RB3LYP) =  -706.404453720     A.U. after   10 cycles
 SCF Done:  E(RB3LYP) =  -706.404453774     A.U. after   10 cycles
 Optimization completed.
    -- Stationary point found.

                         Standard orientation:
 ---------------------------------------------------------------------
 Center     Atomic      Atomic             Coordinates (Angstroms)
 Number     Number       Type             X           Y           Z
 ---------------------------------------------------------------------
      1          6           0       -0.277047    0.455665    0.243663
      2          8           0       -0.336656    0.832915    1.412075
      3          6           0       -0.377122    1.433536   -0.921678
      4          1           0       -0.150747    0.961476   -1.880496
      5          1           0       -1.400993    1.830536   -0.945858
      6          1           0        0.317498    2.260800   -0.745617
      7         17           0       -1.200482   -1.038437   -0.149942
      8          6           0        1.568586   -0.234043   -0.099766
      9          7           0        2.692741   -0.570520   -0.072703
 ---------------------------------------------------------------------

 The electronic state is 1-A.
 Alpha  occ. eigenvalues -- -101.50332 -19.09816 -14.28670 -10.30023 -10.16667
 Alpha  occ. eigenvalues --  -10.16146  -9.42118  -7.18378  -7.17595  -7.17567
 Alpha  occ. eigenvalues --   -1.00875  -0.84603  -0.80803  -0.70838  -0.52723
 Alpha  occ. eigenvalues --   -0.45371  -0.43384  -0.40985  -0.37099  -0.36682
 Alpha  occ. eigenvalues --   -0.34057  -0.30066  -0.28956  -0.28239  -0.27225
 Alpha  occ. eigenvalues --   -0.23897  -0.22890
 Alpha virt. eigenvalues --    0.01118   0.03043   0.04762   0.05694   0.06165
 Alpha virt. eigenvalues --    0.07435   0.07930   0.08522   0.09413   0.09971
 Alpha virt. eigenvalues --    0.10407   0.10710   0.12346   0.13704   0.13919

 Mulliken charges:
               1
     1  C    0.028459
     2  O   -0.412745
     3  C   -0.546265
     4  H    0.232325
     5  H    0.228780
     6  H    0.235596
     7  Cl  -0.077147
     8  C   -0.003817
     9  N   -0.685187
 Sum of Mulliken charges =  -1.00000

 Dipole moment (field-independent basis, Debye):
    X=             -5.3971    Y=              2.3329    Z=             -3.2063  Tot=              6.6972
 Quadrupole moment (field-independent basis, Debye-Ang):
   XX=            -68.9587   YY=            -48.0814   ZZ=            -50.6724
   XY=              3.3147   XZ=              1.9250   YZ=             -4.0703

 Normal termination of Gaussian 16 at Tue Jan  7 23:45:30 2020.
