 Gaussian 16, Revision A.03,
 Gaussian 16:  AS64L-G16RevA.03 25-Dec-2016

 ----------------------------------------------------------------------
 #p opt=modredundant b3lyp/6-31+g(d) scrf=(smd, solvent=tetrahydrofuran
 )
 ----------------------------------------------------------------------

 -----
 title
 -----
 Symbolic Z-matrix:
 Charge = -1 Multiplicity = 1

 SCF Done:  E(RB3LYP) =  -706.386227555     A.U. after   14 cycles
 SCF Done:  E(RB3LYP) =  -706.407271765     A.U. after   13 cycles
 SCF Done:  E(RB3LYP) =  -706.410435009     A.U. after   12 cycles
 SCF Done:  E(RB3LYP) =  -706.410778642     A.U. after   12 cycles
 SCF Done:  E(RB3LYP) =  -706.410826307     A.U. after   10 cycles
 SCF Done:  E(RB3LYP) =  -706.410830635     A.U. after   10 cycles
 SCF Done:  E(RB3LYP) =  -706.410834591     A.U. after   10 cycles
 SCF Done:  E(RB3LYP) =  -706.410835099     A.U. after   11 cycles
 SCF Done:  E(RB3LYP) =  -706.410848208     A.U. after   10 cycles
 SCF Done:  E(RB3LYP) =  -706.410857510     A.U. after   11 cycles
 SCF Done:  E(RB3LYP) =  -706.410841281     A.U. after   11 cycles
 SCF Done:  E(RB3LYP) =  -706.410853087     A.U. after   10 cycles
 SCF Done:  E(RB3LYP) =  -706.410864213     A.U. after   10 cycles
 SCF Done:  E(RB3LYP) =  -706.410856482     A.U. after   11 cycles
 SCF Done:  E(RB3LYP) =  -706.410861552     A.U. after   10 cycles
 SCF Done:  E(RB3LYP) =  -706.410865113     A.U. after   10 cycles
 SCF Done:  E(RB3LYP) =  -706.410863204     A.U. after   10 cycles
 SCF Done:  E(RB3LYP) =  -706.410863762     A.U. after   10 cycles
 SCF Done:  E(RB3LYP) =  -706.410865451     A.U. after   10 cycles
 SCF Done:  E(RB3LYP) =  -706.410862849     A.U. after   10 cycles
 Optimization completed.
    -- Stationary point found.

                         Standard orientation:
 ---------------------------------------------------------------------
 Center     Atomic      Atomic             Coordinates (Angstroms)
 Number     Number       Type             X           Y           Z
 ---------------------------------------------------------------------
      1          6           0       -0.448673    0.555177    0.252968
      2          8           0       -0.459911    0.901605    1.396261
      3          6           0       -0.438755    1.419735   -0.976548
      4          1           0       -0.122821    0.867757   -1.860243
      5          1           0       -1.464510    1.786570   -1.124056
      6          1           0        0.225857    2.270194   -0.803309
      7         17           0       -1.237469   -1.128148   -0.139740
      8          6           0        1.815157   -0.166827   -0.084350
      9          7           0        2.930196   -0.543908   -0.022760
 ---------------------------------------------------------------------

 The electronic state is 1-A.
 Alpha  occ. eigenvalues -- -101.50749 -19.15229 -14.26661 -10.32134 -10.18267
 Alpha  occ. eigenvalues --  -10.13273  -9.42398  -7.18650  -7.17906  -7.17860
 Alpha  occ. eigenvalues --   -1.06124  -0.82345  -0.80027  -0.72733  -0.52889
 Alpha  occ. eigenvalues --   -0.45464  -0.44856  -0.43989  -0.38111  -0.36916
 Alpha  occ. eigenvalues --   -0.34907  -0.29289  -0.28782  -0.27174  -0.26948
 Alpha  occ. eigenvalues --   -0.26592  -0.23487
 Alpha virt. eigenvalues --   -0.01177   0.02113   0.03756   0.05098   0.05834
 Alpha virt. eigenvalues --    0.06141   0.08442   0.08951   0.09095   0.09716
 Alpha virt. eigenvalues --    0.10875   0.11042   0.11326   0.13299   0.13698

 Mulliken charges:
               1
     1  C   -0.125086
     2  O   -0.265971
     3  C   -0.467407
     4  H    0.258507
     5  H    0.247802
     6  H    0.254019
     7  Cl  -0.075765
     8  C   -0.144089
     9  N   -0.682010
 Sum of Mulliken charges =  -1.00000

 Dipole moment (field-independent basis, Debye):
    X=             -8.3557    Y=              3.7610    Z=             -2.6769  Tot=              9.5461
 Quadrupole moment (field-independent basis, Debye-Ang):
   XX=            -76.9235   YY=            -47.1931   ZZ=            -48.6531
   XY=              3.0694   XZ=              1.6806   YZ=             -3.7356

 Normal termination of Gaussian 16 at Wed Jan  8 00:14:24 2020.
