 Gaussian 16, Revision A.03,
 Gaussian 16:  AS64L-G16RevA.03 25-Dec-2016

 ----------------------------------------------------------------------
 #p opt=modredundant b3lyp/6-31+g(d) scrf=(smd, solvent=tetrahydrofuran
 )
 ----------------------------------------------------------------------

 -----
 title
 -----
 Symbolic Z-matrix:
 Charge = -1 Multiplicity = 1

 SCF Done:  E(RB3LYP) =  -706.345188493     A.U. after   15 cycles
 SCF Done:  E(RB3LYP) =  -706.381546647     A.U. after   13 cycles
 SCF Done:  E(RB3LYP) =  -706.393751818     A.U. after   12 cycles
 SCF Done:  E(RB3LYP) =  -706.399644758     A.U. after   12 cycles
 SCF Done:  E(RB3LYP) =  -706.400778252     A.U. after   11 cycles
 SCF Done:  E(RB3LYP) =  -706.400889274     A.U. after   11 cycles
 SCF Done:  E(RB3LYP) =  -706.400958258     A.U. after   10 cycles
 SCF Done:  E(RB3LYP) =  -706.400981378     A.U. after   10 cycles
 SCF Done:  E(RB3LYP) =  -706.400996011     A.U. after   10 cycles
 SCF Done:  E(RB3LYP) =  -706.400998332     A.U. after    9 cycles
 SCF Done:  E(RB3LYP) =  -706.400999033     A.U. after    8 cycles
 Optimization completed.
    -- Stationary point found.

                         Standard orientation:
 ---------------------------------------------------------------------
 Center     Atomic      Atomic             Coordinates (Angstroms)
 Number     Number       Type             X           Y           Z
 ---------------------------------------------------------------------
      1          6           0        0.229651    0.928409    0.234103
      2          8           0        0.127426    1.225216    1.342997
      3          6           0        0.064780    1.333692   -1.164694
      4          1           0       -0.013925    0.462415   -1.810081
      5          1           0       -0.834817    1.955384   -1.228948
      6          1           0        0.959637    1.915022   -1.425034
      7         17           0       -2.028693   -0.874078   -0.012715
      8          6           0        1.940671   -0.590466   -0.001336
      9          7           0        2.849552   -1.329290   -0.067456
 ---------------------------------------------------------------------

 The electronic state is 1-A.
 Alpha  occ. eigenvalues -- -101.42258 -19.24395 -14.29484 -10.37341 -10.22118
 Alpha  occ. eigenvalues --  -10.17155  -9.33604  -7.09450  -7.09351  -7.09345
 Alpha  occ. eigenvalues --   -1.15003  -0.85228  -0.78817  -0.67543  -0.56610
 Alpha  occ. eigenvalues --   -0.49876  -0.49497  -0.48527  -0.41386  -0.41116
 Alpha  occ. eigenvalues --   -0.37644  -0.29792  -0.29745  -0.27684  -0.22287
 Alpha  occ. eigenvalues --   -0.21922  -0.21884
 Alpha virt. eigenvalues --   -0.05762  -0.03136   0.02365   0.04754   0.04781
 Alpha virt. eigenvalues --    0.05480   0.06878   0.07538   0.08714   0.09856
 Alpha virt. eigenvalues --    0.09973   0.10322   0.10843   0.12596   0.13416

 Mulliken charges:
               1
     1  C    0.534829
     2  O   -0.170147
     3  C   -0.656373
     4  H    0.315636
     5  H    0.290320
     6  H    0.295991
     7  Cl  -0.862886
     8  C   -0.119504
     9  N   -0.627866
 Sum of Mulliken charges =  -1.00000

 Dipole moment (field-independent basis, Debye):
    X=              0.8936    Y=             10.1660    Z=             -2.6926  Tot=             10.5545
 Quadrupole moment (field-independent basis, Debye-Ang):
   XX=            -87.3304   YY=            -51.1037   ZZ=            -45.1864
   XY=              3.4388   XZ=              0.2681   YZ=             -4.3202

 Normal termination of Gaussian 16 at Wed Jan  8 02:11:32 2020.
