 Gaussian 16, Revision A.03,
 Gaussian 16:  AS64L-G16RevA.03 25-Dec-2016

 ----------------------------------------------------------------------
 #p opt=modredundant b3lyp/6-31+g(d) scrf=(smd, solvent=tetrahydrofuran
 )
 ----------------------------------------------------------------------

 -----
 title
 -----
 Symbolic Z-matrix:
 Charge = -1 Multiplicity = 1

 SCF Done:  E(RB3LYP) =  -706.335264042     A.U. after   14 cycles
 SCF Done:  E(RB3LYP) =  -706.337838119     A.U. after   12 cycles
 SCF Done:  E(RB3LYP) =  -706.338219051     A.U. after   11 cycles
 SCF Done:  E(RB3LYP) =  -706.338243446     A.U. after   11 cycles
 SCF Done:  E(RB3LYP) =  -706.338248126     A.U. after   10 cycles
 SCF Done:  E(RB3LYP) =  -706.338249443     A.U. after    9 cycles
 SCF Done:  E(RB3LYP) =  -706.338249580     A.U. after    9 cycles
 Optimization completed.
    -- Stationary point found.

                         Standard orientation:
 ---------------------------------------------------------------------
 Center     Atomic      Atomic             Coordinates (Angstroms)
 Number     Number       Type             X           Y           Z
 ---------------------------------------------------------------------
      1          6           0       -0.318776    0.258566    0.217442
      2          8           0       -0.342536    0.570145    1.457896
      3          6           0       -0.379475    1.464546   -0.761248
      4          1           0       -0.171030    1.180012   -1.799082
      5          1           0       -1.393847    1.885817   -0.705783
      6          1           0        0.334658    2.226974   -0.439820
      7         17           0       -1.126024   -0.922763   -0.232903
      8          6           0        1.477573   -0.242139   -0.146459
      9          7           0        2.633856   -0.436118   -0.088218
 ---------------------------------------------------------------------

 The electronic state is 1-A.
 Alpha  occ. eigenvalues -- -101.52517 -19.05966 -14.28648 -10.28005 -10.16173
 Alpha  occ. eigenvalues --  -10.15540  -9.44954  -7.21245  -7.20347  -7.20278
 Alpha  occ. eigenvalues --   -0.99165  -0.87160  -0.84611  -0.69515  -0.54299
 Alpha  occ. eigenvalues --   -0.47679  -0.43466  -0.41049  -0.36678  -0.36056
 Alpha  occ. eigenvalues --   -0.34751  -0.30119  -0.29004  -0.28317  -0.27009
 Alpha  occ. eigenvalues --   -0.21520  -0.20058
 Alpha virt. eigenvalues --    0.01445   0.03501   0.05136   0.06206   0.06774
 Alpha virt. eigenvalues --    0.07795   0.08079   0.08980   0.09700   0.09907
 Alpha virt. eigenvalues --    0.10213   0.11230   0.12776   0.14002   0.14340

 Mulliken charges:
               1
     1  C   -0.011320
     2  O   -0.547787
     3  C   -0.557964
     4  H    0.214390
     5  H    0.212597
     6  H    0.227617
     7  Cl   0.170282
     8  C   -0.013657
     9  N   -0.694157
 Sum of Mulliken charges =  -1.00000

 Dipole moment (field-independent basis, Debye):
    X=             -5.8658    Y=              0.6413    Z=             -3.9781  Tot=              7.1165
 Quadrupole moment (field-independent basis, Debye-Ang):
   XX=            -66.4453   YY=            -46.4011   ZZ=            -52.8456
   XY=              3.5844   XZ=              2.4942   YZ=             -3.0724

 Normal termination of Gaussian 16 at Tue Jan  7 22:49:21 2020.
