 Gaussian 16, Revision A.03,
 Gaussian 16:  AS64L-G16RevA.03 25-Dec-2016

 ----------------------------------------------------------------------
 #p opt=modredundant b3lyp/6-31+g(d) scrf=(smd, solvent=tetrahydrofuran
 )
 ----------------------------------------------------------------------

 -----
 title
 -----
 Symbolic Z-matrix:
 Charge = -1 Multiplicity = 1

 SCF Done:  E(RB3LYP) =  -706.356455392     A.U. after   14 cycles
 SCF Done:  E(RB3LYP) =  -706.390800636     A.U. after   13 cycles
 SCF Done:  E(RB3LYP) =  -706.398751396     A.U. after   12 cycles
 SCF Done:  E(RB3LYP) =  -706.401401361     A.U. after   12 cycles
 SCF Done:  E(RB3LYP) =  -706.401631083     A.U. after   11 cycles
 SCF Done:  E(RB3LYP) =  -706.401665695     A.U. after   10 cycles
 SCF Done:  E(RB3LYP) =  -706.401685186     A.U. after   10 cycles
 SCF Done:  E(RB3LYP) =  -706.401687927     A.U. after    9 cycles
 SCF Done:  E(RB3LYP) =  -706.401689128     A.U. after    9 cycles
 SCF Done:  E(RB3LYP) =  -706.401690532     A.U. after    8 cycles
 SCF Done:  E(RB3LYP) =  -706.401691766     A.U. after    9 cycles
 SCF Done:  E(RB3LYP) =  -706.401693108     A.U. after    9 cycles
 SCF Done:  E(RB3LYP) =  -706.401694508     A.U. after    9 cycles
 SCF Done:  E(RB3LYP) =  -706.401695613     A.U. after    9 cycles
 SCF Done:  E(RB3LYP) =  -706.401696164     A.U. after    9 cycles
 SCF Done:  E(RB3LYP) =  -706.401696505     A.U. after    9 cycles
 SCF Done:  E(RB3LYP) =  -706.401696922     A.U. after    9 cycles
 SCF Done:  E(RB3LYP) =  -706.401699409     A.U. after   10 cycles
 Optimization completed.
    -- Stationary point found.

                         Standard orientation:
 ---------------------------------------------------------------------
 Center     Atomic      Atomic             Coordinates (Angstroms)
 Number     Number       Type             X           Y           Z
 ---------------------------------------------------------------------
      1          6           0       -0.231651    0.816135    0.250257
      2          8           0       -0.209639    1.127344    1.364703
      3          6           0       -0.146820    1.349381   -1.121813
      4          1           0        0.031061    0.555755   -1.841893
      5          1           0       -1.107247    1.838969   -1.327969
      6          1           0        0.667198    2.082789   -1.136897
      7         17           0       -1.740182   -1.023855   -0.064019
      8          6           0        2.037471   -0.427940   -0.001468
      9          7           0        3.102170   -0.930882   -0.040627
 ---------------------------------------------------------------------

 The electronic state is 1-A.
 Alpha  occ. eigenvalues -- -101.46379 -19.22906 -14.27005 -10.36228 -10.21480
 Alpha  occ. eigenvalues --  -10.13746  -9.37771  -7.13825  -7.13406  -7.13388
 Alpha  occ. eigenvalues --   -1.13524  -0.82649  -0.78002  -0.71666  -0.55608
 Alpha  occ. eigenvalues --   -0.48553  -0.48110  -0.47640  -0.40556  -0.40248
 Alpha  occ. eigenvalues --   -0.35924  -0.27580  -0.27512  -0.26447  -0.25463
 Alpha  occ. eigenvalues --   -0.25069  -0.24220
 Alpha virt. eigenvalues --   -0.05594  -0.02111   0.02744   0.04858   0.05285
 Alpha virt. eigenvalues --    0.05511   0.07772   0.08191   0.08857   0.09751
 Alpha virt. eigenvalues --    0.10083   0.11013   0.11258   0.12696   0.13410

 Mulliken charges:
               1
     1  C    0.337518
     2  O   -0.160574
     3  C   -0.594901
     4  H    0.305100
     5  H    0.285317
     6  H    0.284469
     7  Cl  -0.571990
     8  C   -0.225172
     9  N   -0.659767
 Sum of Mulliken charges =  -1.00000

 Dipole moment (field-independent basis, Debye):
    X=             -6.0392    Y=              8.4554    Z=             -2.5292  Tot=             10.6940
 Quadrupole moment (field-independent basis, Debye-Ang):
   XX=            -87.5616   YY=            -48.7588   ZZ=            -45.6970
   XY=              3.7409   XZ=              0.6151   YZ=             -4.1123

 Normal termination of Gaussian 16 at Wed Jan  8 01:20:28 2020.
