 Gaussian 16, Revision A.03,
 Gaussian 16:  AS64L-G16RevA.03 25-Dec-2016

 ----------------------------------------------------------------------
 #p opt=modredundant b3lyp/6-31+g(d) scrf=(smd, solvent=tetrahydrofuran
 )
 ----------------------------------------------------------------------

 -----
 title
 -----
 Symbolic Z-matrix:
 Charge = -1 Multiplicity = 1

 SCF Done:  E(RB3LYP) =  -706.418669576     A.U. after   14 cycles
 SCF Done:  E(RB3LYP) =  -706.435702654     A.U. after   12 cycles
 SCF Done:  E(RB3LYP) =  -706.439696965     A.U. after   13 cycles
 SCF Done:  E(RB3LYP) =  -706.440015310     A.U. after   11 cycles
 SCF Done:  E(RB3LYP) =  -706.440039640     A.U. after   10 cycles
 SCF Done:  E(RB3LYP) =  -706.440041911     A.U. after    9 cycles
 Optimization completed.
    -- Stationary point found.

                         Standard orientation:
 ---------------------------------------------------------------------
 Center     Atomic      Atomic             Coordinates (Angstroms)
 Number     Number       Type             X           Y           Z
 ---------------------------------------------------------------------
      1          6           0        0.229663    0.563284    0.210185
      2          8           0        0.247888    1.031358    1.364892
      3          6           0       -0.021579    1.464263   -0.995095
      4          1           0       -0.125866    0.904663   -1.927928
      5          1           0       -0.924627    2.054802   -0.817380
      6          1           0        0.834272    2.148573   -1.082571
      7         17           0       -1.482475   -0.798298   -0.023646
      8          6           0        1.236945   -0.512637   -0.068701
      9          7           0        2.109287   -1.268184   -0.223944
 ---------------------------------------------------------------------

 The electronic state is 1-A.
 Alpha  occ. eigenvalues -- -101.45115 -19.09972 -14.32832 -10.28846 -10.22011
 Alpha  occ. eigenvalues --  -10.16620  -9.36705  -7.12729  -7.12329  -7.12308
 Alpha  occ. eigenvalues --   -1.00155  -0.89297  -0.74657  -0.70228  -0.61637
 Alpha  occ. eigenvalues --   -0.45884  -0.42546  -0.41196  -0.38032  -0.36124
 Alpha  occ. eigenvalues --   -0.35735  -0.32449  -0.31767  -0.24597  -0.24457
 Alpha  occ. eigenvalues --   -0.23240  -0.22686
 Alpha virt. eigenvalues --   -0.01385   0.02631   0.03904   0.04676   0.05819
 Alpha virt. eigenvalues --    0.07136   0.07453   0.08901   0.09761   0.10319
 Alpha virt. eigenvalues --    0.10612   0.11433   0.13101   0.13845   0.14445

 Mulliken charges:
               1
     1  C    0.086317
     2  O   -0.464864
     3  C   -0.598715
     4  H    0.230008
     5  H    0.240756
     6  H    0.229924
     7  Cl  -0.521036
     8  C    0.427421
     9  N   -0.629810
 Sum of Mulliken charges =  -1.00000

 Dipole moment (field-independent basis, Debye):
    X=              0.5083    Y=              3.7386    Z=             -3.2493  Tot=              4.9793
 Quadrupole moment (field-independent basis, Debye-Ang):
   XX=            -61.8084   YY=            -52.9258   ZZ=            -50.4582
   XY=              1.9811   XZ=              0.1517   YZ=             -5.4147

 Normal termination of Gaussian 16 at Wed Jan  8 00:43:12 2020.
