 Gaussian 16, Revision A.03,
 Gaussian 16:  AS64L-G16RevA.03 25-Dec-2016

 ----------------------------------------------------------------------
 #p opt=modredundant b3lyp/6-31+g(d) scrf=(smd, solvent=tetrahydrofuran
 )
 ----------------------------------------------------------------------

 -----
 title
 -----
 Symbolic Z-matrix:
 Charge = -1 Multiplicity = 1

 SCF Done:  E(RB3LYP) =  -706.389909861     A.U. after   14 cycles
 SCF Done:  E(RB3LYP) =  -706.408891575     A.U. after   12 cycles
 SCF Done:  E(RB3LYP) =  -706.411334151     A.U. after   12 cycles
 SCF Done:  E(RB3LYP) =  -706.411645260     A.U. after   11 cycles
 SCF Done:  E(RB3LYP) =  -706.411682344     A.U. after   10 cycles
 SCF Done:  E(RB3LYP) =  -706.411716063     A.U. after   11 cycles
 SCF Done:  E(RB3LYP) =  -706.411722020     A.U. after   10 cycles
 SCF Done:  E(RB3LYP) =  -706.411727001     A.U. after   10 cycles
 SCF Done:  E(RB3LYP) =  -706.411729903     A.U. after   10 cycles
 SCF Done:  E(RB3LYP) =  -706.411730617     A.U. after    9 cycles
 Optimization completed.
    -- Stationary point found.

                         Standard orientation:
 ---------------------------------------------------------------------
 Center     Atomic      Atomic             Coordinates (Angstroms)
 Number     Number       Type             X           Y           Z
 ---------------------------------------------------------------------
      1          6           0       -0.205345    0.644836    0.250012
      2          8           0       -0.291779    1.040220    1.373875
      3          6           0       -0.308430    1.423375   -1.032523
      4          1           0       -0.096701    0.801491   -1.901049
      5          1           0       -1.325408    1.828038   -1.103128
      6          1           0        0.407007    2.251917   -0.981330
      7         17           0       -1.330238   -1.095029   -0.092751
      8          6           0        1.660408   -0.274100   -0.040717
      9          7           0        2.726225   -0.764626   -0.069910
 ---------------------------------------------------------------------

 The electronic state is 1-A.
 Alpha  occ. eigenvalues -- -101.47371 -19.14646 -14.28786 -10.32033 -10.18299
 Alpha  occ. eigenvalues --  -10.16343  -9.38930  -7.15066  -7.14495  -7.14483
 Alpha  occ. eigenvalues --   -1.05499  -0.84650  -0.75992  -0.71979  -0.52704
 Alpha  occ. eigenvalues --   -0.45806  -0.44194  -0.43371  -0.37941  -0.36940
 Alpha  occ. eigenvalues --   -0.35038  -0.29538  -0.29122  -0.26560  -0.26304
 Alpha  occ. eigenvalues --   -0.25136  -0.24591
 Alpha virt. eigenvalues --   -0.01288   0.02066   0.03571   0.05250   0.05839
 Alpha virt. eigenvalues --    0.06536   0.07682   0.08220   0.09177   0.09980
 Alpha virt. eigenvalues --    0.10512   0.10576   0.11343   0.13059   0.13735

 Mulliken charges:
               1
     1  C    0.165186
     2  O   -0.292477
     3  C   -0.560528
     4  H    0.255213
     5  H    0.248451
     6  H    0.250078
     7  Cl  -0.372652
     8  C   -0.023593
     9  N   -0.669679
 Sum of Mulliken charges =  -1.00000

 Dipole moment (field-independent basis, Debye):
    X=             -4.4145    Y=              4.9688    Z=             -2.7108  Tot=              7.1781
 Quadrupole moment (field-independent basis, Debye-Ang):
   XX=            -71.8506   YY=            -49.7403   ZZ=            -48.5069
   XY=              2.6979   XZ=              1.4454   YZ=             -4.4526

 Normal termination of Gaussian 16 at Wed Jan  8 00:39:47 2020.
