 Gaussian 16, Revision A.03,
 Gaussian 16:  AS64L-G16RevA.03 25-Dec-2016

 ----------------------------------------------------------------------
 #p opt=modredundant b3lyp/6-31+g(d) scrf=(smd, solvent=tetrahydrofuran
 )
 ----------------------------------------------------------------------

 -----
 title
 -----
 Symbolic Z-matrix:
 Charge = -1 Multiplicity = 1

 SCF Done:  E(RB3LYP) =  -706.363650101     A.U. after   14 cycles
 SCF Done:  E(RB3LYP) =  -706.384874480     A.U. after   12 cycles
 SCF Done:  E(RB3LYP) =  -706.388089966     A.U. after   12 cycles
 SCF Done:  E(RB3LYP) =  -706.388369932     A.U. after   11 cycles
 SCF Done:  E(RB3LYP) =  -706.388396984     A.U. after   10 cycles
 SCF Done:  E(RB3LYP) =  -706.388413680     A.U. after   11 cycles
 SCF Done:  E(RB3LYP) =  -706.388492945     A.U. after   11 cycles
 SCF Done:  E(RB3LYP) =  -706.388225012     A.U. after   13 cycles
 SCF Done:  E(RB3LYP) =  -706.388552804     A.U. after   10 cycles
 SCF Done:  E(RB3LYP) =  -706.388574668     A.U. after   11 cycles
 SCF Done:  E(RB3LYP) =  -706.388581315     A.U. after   10 cycles
 SCF Done:  E(RB3LYP) =  -706.388581010     A.U. after    9 cycles
 SCF Done:  E(RB3LYP) =  -706.388581852     A.U. after    9 cycles
 SCF Done:  E(RB3LYP) =  -706.388582883     A.U. after    8 cycles
 SCF Done:  E(RB3LYP) =  -706.388585971     A.U. after    9 cycles
 SCF Done:  E(RB3LYP) =  -706.388589801     A.U. after    9 cycles
 SCF Done:  E(RB3LYP) =  -706.388592873     A.U. after    9 cycles
 Optimization completed.
    -- Stationary point found.

                         Standard orientation:
 ---------------------------------------------------------------------
 Center     Atomic      Atomic             Coordinates (Angstroms)
 Number     Number       Type             X           Y           Z
 ---------------------------------------------------------------------
      1          6           0       -0.555621    0.373185    0.250795
      2          8           0       -0.429435    0.643989    1.436069
      3          6           0       -0.516441    1.452934   -0.816669
      4          1           0       -0.228882    1.064287   -1.794906
      5          1           0       -1.530575    1.874672   -0.888733
      6          1           0        0.172393    2.241870   -0.509119
      7         17           0       -1.191627   -1.022607   -0.204464
      8          6           0        1.821345   -0.227175   -0.238697
      9          7           0        2.969215   -0.363154    0.001074
 ---------------------------------------------------------------------

 The electronic state is 1-A.
 Alpha  occ. eigenvalues -- -101.54231 -19.12522 -14.25873 -10.30351 -10.17091
 Alpha  occ. eigenvalues --  -10.12188  -9.46277  -7.22570  -7.21750  -7.21620
 Alpha  occ. eigenvalues --   -1.03917  -0.87795  -0.81493  -0.71664  -0.54242
 Alpha  occ. eigenvalues --   -0.45842  -0.44835  -0.43696  -0.38162  -0.36556
 Alpha  occ. eigenvalues --   -0.34618  -0.30635  -0.30340  -0.26476  -0.26290
 Alpha  occ. eigenvalues --   -0.25213  -0.22716
 Alpha virt. eigenvalues --   -0.00854   0.02964   0.04883   0.05680   0.06117
 Alpha virt. eigenvalues --    0.06914   0.08533   0.09174   0.09287   0.09535
 Alpha virt. eigenvalues --    0.11071   0.11208   0.12225   0.13620   0.13753

 Mulliken charges:
               1
     1  C   -0.474570
     2  O   -0.334765
     3  C   -0.361136
     4  H    0.242977
     5  H    0.235163
     6  H    0.247640
     7  Cl   0.318907
     8  C   -0.207284
     9  N   -0.666931
 Sum of Mulliken charges =  -1.00000

 Dipole moment (field-independent basis, Debye):
    X=            -10.4107    Y=              1.8439    Z=             -2.7910  Tot=             10.9349
 Quadrupole moment (field-independent basis, Debye-Ang):
   XX=            -76.8890   YY=            -45.0511   ZZ=            -50.3941
   XY=              3.3629   XZ=              1.9682   YZ=             -2.7807

 Normal termination of Gaussian 16 at Tue Jan  7 23:20:12 2020.
