 Gaussian 16, Revision A.03,
 Gaussian 16:  AS64L-G16RevA.03 25-Dec-2016

 ----------------------------------------------------------------------
 #p opt=modredundant b3lyp/6-31+g(d) scrf=(smd, solvent=tetrahydrofuran
 )
 ----------------------------------------------------------------------

 -----
 title
 -----
 Symbolic Z-matrix:
 Charge = -1 Multiplicity = 1

 SCF Done:  E(RB3LYP) =  -706.359847692     A.U. after   14 cycles
 SCF Done:  E(RB3LYP) =  -706.393812272     A.U. after   12 cycles
 SCF Done:  E(RB3LYP) =  -706.401632833     A.U. after   12 cycles
 SCF Done:  E(RB3LYP) =  -706.404260661     A.U. after   12 cycles
 SCF Done:  E(RB3LYP) =  -706.404466410     A.U. after   11 cycles
 SCF Done:  E(RB3LYP) =  -706.404488295     A.U. after   10 cycles
 SCF Done:  E(RB3LYP) =  -706.404504528     A.U. after   10 cycles
 SCF Done:  E(RB3LYP) =  -706.404507052     A.U. after    9 cycles
 SCF Done:  E(RB3LYP) =  -706.404508131     A.U. after    9 cycles
 SCF Done:  E(RB3LYP) =  -706.404509305     A.U. after    8 cycles
 SCF Done:  E(RB3LYP) =  -706.404511310     A.U. after   10 cycles
 SCF Done:  E(RB3LYP) =  -706.404512551     A.U. after    9 cycles
 SCF Done:  E(RB3LYP) =  -706.404512981     A.U. after    9 cycles
 Optimization completed.
    -- Stationary point found.

                         Standard orientation:
 ---------------------------------------------------------------------
 Center     Atomic      Atomic             Coordinates (Angstroms)
 Number     Number       Type             X           Y           Z
 ---------------------------------------------------------------------
      1          6           0       -0.333281    0.780747    0.255753
      2          8           0       -0.272054    1.076261    1.376077
      3          6           0       -0.204503    1.364781   -1.094314
      4          1           0        0.022442    0.600332   -1.832616
      5          1           0       -1.169891    1.832661   -1.327429
      6          1           0        0.585769    2.121733   -1.056154
      7         17           0       -1.689550   -1.046076   -0.080773
      8          6           0        2.079139   -0.398203   -0.027632
      9          7           0        3.173190   -0.837925   -0.031732
 ---------------------------------------------------------------------

 The electronic state is 1-A.
 Alpha  occ. eigenvalues -- -101.47553 -19.22350 -14.26551 -10.35836 -10.21190
 Alpha  occ. eigenvalues --  -10.13131  -9.38968  -7.15074  -7.14576  -7.14550
 Alpha  occ. eigenvalues --   -1.12957  -0.82171  -0.77891  -0.72818  -0.55346
 Alpha  occ. eigenvalues --   -0.48216  -0.47780  -0.47411  -0.40238  -0.39992
 Alpha  occ. eigenvalues --   -0.35589  -0.27458  -0.27183  -0.27097  -0.26242
 Alpha  occ. eigenvalues --   -0.25976  -0.23853
 Alpha virt. eigenvalues --   -0.05046  -0.02142   0.02814   0.04828   0.05258
 Alpha virt. eigenvalues --    0.05567   0.07955   0.08269   0.08875   0.09691
 Alpha virt. eigenvalues --    0.10090   0.11169   0.11367   0.12765   0.13404

 Mulliken charges:
               1
     1  C    0.315367
     2  O   -0.173081
     3  C   -0.611084
     4  H    0.301876
     5  H    0.282999
     6  H    0.281471
     7  Cl  -0.487058
     8  C   -0.249275
     9  N   -0.661215
 Sum of Mulliken charges =  -1.00000

 Dipole moment (field-independent basis, Debye):
    X=             -7.5835    Y=              7.8244    Z=             -2.4612  Tot=             11.1709
 Quadrupole moment (field-independent basis, Debye-Ang):
   XX=            -88.3686   YY=            -48.0149   ZZ=            -46.0078
   XY=              3.7525   XZ=              0.7386   YZ=             -4.0125

 Normal termination of Gaussian 16 at Wed Jan  8 01:07:35 2020.
