 Gaussian 16, Revision A.03,
 Gaussian 16:  AS64L-G16RevA.03 25-Dec-2016

 ----------------------------------------------------------------------
 #p opt=modredundant b3lyp/6-31+g(d) scrf=(smd, solvent=tetrahydrofuran
 )
 ----------------------------------------------------------------------

 -----
 title
 -----
 Symbolic Z-matrix:
 Charge = -1 Multiplicity = 1

 SCF Done:  E(RB3LYP) =  -706.357032415     A.U. after   15 cycles
 SCF Done:  E(RB3LYP) =  -706.392407898     A.U. after   13 cycles
 SCF Done:  E(RB3LYP) =  -706.408890748     A.U. after   12 cycles
 SCF Done:  E(RB3LYP) =  -706.416014947     A.U. after   12 cycles
 SCF Done:  E(RB3LYP) =  -706.417279716     A.U. after   11 cycles
 SCF Done:  E(RB3LYP) =  -706.417550845     A.U. after   11 cycles
 SCF Done:  E(RB3LYP) =  -706.417640523     A.U. after   11 cycles
 SCF Done:  E(RB3LYP) =  -706.417656984     A.U. after   10 cycles
 SCF Done:  E(RB3LYP) =  -706.417662293     A.U. after   10 cycles
 SCF Done:  E(RB3LYP) =  -706.417660953     A.U. after   10 cycles
 SCF Done:  E(RB3LYP) =  -706.417657814     A.U. after    9 cycles
 SCF Done:  E(RB3LYP) =  -706.417662633     A.U. after   10 cycles
 SCF Done:  E(RB3LYP) =  -706.417658073     A.U. after   10 cycles
 Optimization completed.
    -- Stationary point found.

                         Standard orientation:
 ---------------------------------------------------------------------
 Center     Atomic      Atomic             Coordinates (Angstroms)
 Number     Number       Type             X           Y           Z
 ---------------------------------------------------------------------
      1          6           0        0.602735    0.875939    0.211210
      2          8           0        0.527820    1.247373    1.315448
      3          6           0        0.293282    1.363187   -1.144727
      4          1           0       -0.105741    0.549485   -1.749973
      5          1           0       -0.422202    2.187375   -1.073965
      6          1           0        1.238067    1.710957   -1.584429
      7         17           0       -2.197478   -0.661487    0.023777
      8          6           0        1.702837   -0.777187   -0.027429
      9          7           0        2.404473   -1.707593   -0.107678
 ---------------------------------------------------------------------

 The electronic state is 1-A.
 Alpha  occ. eigenvalues -- -101.41273 -19.21782 -14.32015 -10.35864 -10.20801
 Alpha  occ. eigenvalues --  -10.20523  -9.32601  -7.08398  -7.08376  -7.08371
 Alpha  occ. eigenvalues --   -1.12354  -0.87867  -0.77525  -0.66490  -0.56422
 Alpha  occ. eigenvalues --   -0.50452  -0.47958  -0.47088  -0.40834  -0.39855
 Alpha  occ. eigenvalues --   -0.37922  -0.32095  -0.32000  -0.29748  -0.21195
 Alpha  occ. eigenvalues --   -0.21092  -0.21067
 Alpha virt. eigenvalues --   -0.04479  -0.01702   0.02406   0.03986   0.04725
 Alpha virt. eigenvalues --    0.05895   0.06443   0.07159   0.08818   0.09663
 Alpha virt. eigenvalues --    0.09887   0.10145   0.10633   0.12697   0.13285

 Mulliken charges:
               1
     1  C    0.629100
     2  O   -0.246465
     3  C   -0.750213
     4  H    0.300961
     5  H    0.273367
     6  H    0.284865
     7  Cl  -0.938858
     8  C    0.036062
     9  N   -0.588819
 Sum of Mulliken charges =  -1.00000

 Dipole moment (field-independent basis, Debye):
    X=              5.6475    Y=              8.6818    Z=             -2.9067  Tot=             10.7571
 Quadrupole moment (field-independent basis, Debye-Ang):
   XX=            -81.5519   YY=            -53.4121   ZZ=            -46.1938
   XY=              3.7887   XZ=             -0.2431   YZ=             -4.6578

 Normal termination of Gaussian 16 at Wed Jan  8 02:59:43 2020.
