 Gaussian 16, Revision A.03,
 Gaussian 16:  AS64L-G16RevA.03 25-Dec-2016

 ----------------------------------------------------------------------
 #p opt=modredundant b3lyp/6-31+g(d) scrf=(smd, solvent=tetrahydrofuran
 )
 ----------------------------------------------------------------------

 -----
 title
 -----
 Symbolic Z-matrix:
 Charge = -1 Multiplicity = 1

 SCF Done:  E(RB3LYP) =  -706.307166372     A.U. after   14 cycles
 SCF Done:  E(RB3LYP) =  -706.317857059     A.U. after   13 cycles
 SCF Done:  E(RB3LYP) =  -706.318821196     A.U. after   13 cycles
 SCF Done:  E(RB3LYP) =  -706.319132935     A.U. after   12 cycles
 SCF Done:  E(RB3LYP) =  -706.319165981     A.U. after   11 cycles
 SCF Done:  E(RB3LYP) =  -706.319191445     A.U. after   11 cycles
 SCF Done:  E(RB3LYP) =  -706.319196381     A.U. after   10 cycles
 SCF Done:  E(RB3LYP) =  -706.319197276     A.U. after    9 cycles
 Optimization completed.
    -- Stationary point found.

                         Standard orientation:
 ---------------------------------------------------------------------
 Center     Atomic      Atomic             Coordinates (Angstroms)
 Number     Number       Type             X           Y           Z
 ---------------------------------------------------------------------
      1          6           0        0.073660    0.239729    0.174906
      2          8           0        0.137752    0.664846    1.471273
      3          6           0       -0.039474    1.482272   -0.812915
      4          1           0       -0.108686    1.184932   -1.866760
      5          1           0       -0.936880    2.036481   -0.521732
      6          1           0        0.840366    2.117051   -0.668057
      7         17           0       -1.297707   -0.716236   -0.134095
      8          6           0        1.075789   -0.373160   -0.070257
      9          7           0        2.072051   -0.939180   -0.312062
 ---------------------------------------------------------------------

 The electronic state is 1-A.
 Alpha  occ. eigenvalues -- -101.50725 -19.04035 -14.30779 -10.24102 -10.19540
 Alpha  occ. eigenvalues --  -10.16099  -9.42679  -7.18977  -7.18114  -7.18085
 Alpha  occ. eigenvalues --   -0.96295  -0.87067  -0.82081  -0.71842  -0.66138
 Alpha  occ. eigenvalues --   -0.47684  -0.43808  -0.40995  -0.37408  -0.36328
 Alpha  occ. eigenvalues --   -0.35094  -0.30364  -0.30254  -0.27892  -0.26764
 Alpha  occ. eigenvalues --   -0.19033  -0.18163
 Alpha virt. eigenvalues --    0.01605   0.02729   0.04029   0.05306   0.06167
 Alpha virt. eigenvalues --    0.07344   0.08223   0.09724   0.10023   0.10222
 Alpha virt. eigenvalues --    0.10573   0.11535   0.14073   0.14422   0.14921

 Mulliken charges:
               1
     1  C   -0.206247
     2  O   -0.682199
     3  C   -0.616733
     4  H    0.215181
     5  H    0.227819
     6  H    0.219892
     7  Cl  -0.013868
     8  C    0.603097
     9  N   -0.746941
 Sum of Mulliken charges =  -1.00000

 Dipole moment (field-independent basis, Debye):
    X=             -3.2116    Y=              1.3624    Z=             -4.4806  Tot=              5.6786
 Quadrupole moment (field-independent basis, Debye-Ang):
   XX=            -58.0697   YY=            -49.2198   ZZ=            -54.1839
   XY=              4.0947   XZ=              0.7908   YZ=             -5.0314

 Normal termination of Gaussian 16 at Tue Jan  7 23:13:23 2020.
