 Gaussian 16, Revision A.03,
 Gaussian 16:  AS64L-G16RevA.03 25-Dec-2016

 ----------------------------------------------------------------------
 #p opt=modredundant b3lyp/6-31+g(d) scrf=(smd, solvent=tetrahydrofuran
 )
 ----------------------------------------------------------------------

 -----
 title
 -----
 Symbolic Z-matrix:
 Charge = -1 Multiplicity = 1

 SCF Done:  E(RB3LYP) =  -706.331343403     A.U. after   15 cycles
 SCF Done:  E(RB3LYP) =  -706.370513777     A.U. after   13 cycles
 SCF Done:  E(RB3LYP) =  -706.384248694     A.U. after   13 cycles
 SCF Done:  E(RB3LYP) =  -706.391054064     A.U. after   12 cycles
 SCF Done:  E(RB3LYP) =  -706.392655744     A.U. after   11 cycles
 SCF Done:  E(RB3LYP) =  -706.392793022     A.U. after   11 cycles
 SCF Done:  E(RB3LYP) =  -706.392510693     A.U. after   11 cycles
 SCF Done:  E(RB3LYP) =  -706.392858212     A.U. after   11 cycles
 SCF Done:  E(RB3LYP) =  -706.392902246     A.U. after   10 cycles
 SCF Done:  E(RB3LYP) =  -706.392982072     A.U. after   10 cycles
 SCF Done:  E(RB3LYP) =  -706.393005339     A.U. after   11 cycles
 SCF Done:  E(RB3LYP) =  -706.393006963     A.U. after   11 cycles
 SCF Done:  E(RB3LYP) =  -706.393030029     A.U. after   10 cycles
 SCF Done:  E(RB3LYP) =  -706.393045733     A.U. after   10 cycles
 SCF Done:  E(RB3LYP) =  -706.393050624     A.U. after    9 cycles
 SCF Done:  E(RB3LYP) =  -706.393053543     A.U. after    9 cycles
 SCF Done:  E(RB3LYP) =  -706.393053919     A.U. after    9 cycles
 SCF Done:  E(RB3LYP) =  -706.393054434     A.U. after    9 cycles
 Optimization completed.
    -- Stationary point found.

                         Standard orientation:
 ---------------------------------------------------------------------
 Center     Atomic      Atomic             Coordinates (Angstroms)
 Number     Number       Type             X           Y           Z
 ---------------------------------------------------------------------
      1          6           0        0.085881    0.933085    0.229159
      2          8           0        0.026413    1.159935    1.345805
      3          6           0        0.048657    1.214241   -1.194469
      4          1           0        0.058828    0.288768   -1.766354
      5          1           0       -0.870553    1.782074   -1.383907
      6          1           0        0.940866    1.813704   -1.417197
      7         17           0       -2.175791   -0.865188   -0.017932
      8          6           0        2.218152   -0.540717    0.025866
      9          7           0        3.218837   -1.156498   -0.036780
 ---------------------------------------------------------------------

 The electronic state is 1-A.
 Alpha  occ. eigenvalues -- -101.42829 -19.27469 -14.27854 -10.39261 -10.23557
 Alpha  occ. eigenvalues --  -10.14840  -9.34168  -7.10031  -7.09908  -7.09900
 Alpha  occ. eigenvalues --   -1.18048  -0.83514  -0.80747  -0.68076  -0.58266
 Alpha  occ. eigenvalues --   -0.51469  -0.51104  -0.50505  -0.43004  -0.42724
 Alpha  occ. eigenvalues --   -0.36754  -0.28311  -0.28290  -0.25817  -0.22909
 Alpha  occ. eigenvalues --   -0.22403  -0.22359
 Alpha virt. eigenvalues --   -0.06970  -0.04693   0.02094   0.04661   0.04830
 Alpha virt. eigenvalues --    0.05152   0.07187   0.07567   0.08576   0.09678
 Alpha virt. eigenvalues --    0.09880   0.10716   0.11045   0.12438   0.13271

 Mulliken charges:
               1
     1  C    0.586063
     2  O   -0.150778
     3  C   -0.655416
     4  H    0.338732
     5  H    0.308715
     6  H    0.311576
     7  Cl  -0.849787
     8  C   -0.240316
     9  N   -0.648789
 Sum of Mulliken charges =  -1.00000

 Dipole moment (field-independent basis, Debye):
    X=             -1.6302    Y=             10.7058    Z=             -2.8465  Tot=             11.1971
 Quadrupole moment (field-independent basis, Debye-Ang):
   XX=           -100.2378   YY=            -49.4176   ZZ=            -44.1224
   XY=              3.9842   XZ=              0.0356   YZ=             -3.8689

 Normal termination of Gaussian 16 at Wed Jan  8 02:20:36 2020.
