 Gaussian 16, Revision A.03,
 Gaussian 16:  AS64L-G16RevA.03 25-Dec-2016

 ----------------------------------------------------------------------
 #p opt=modredundant b3lyp/6-31+g(d) scrf=(smd, solvent=tetrahydrofuran
 )
 ----------------------------------------------------------------------

 -----
 title
 -----
 Symbolic Z-matrix:
 Charge = -1 Multiplicity = 1

 SCF Done:  E(RB3LYP) =  -706.376585004     A.U. after   14 cycles
 SCF Done:  E(RB3LYP) =  -706.407443655     A.U. after   13 cycles
 SCF Done:  E(RB3LYP) =  -706.420453002     A.U. after   13 cycles
 SCF Done:  E(RB3LYP) =  -706.424294270     A.U. after   12 cycles
 SCF Done:  E(RB3LYP) =  -706.424715573     A.U. after   11 cycles
 SCF Done:  E(RB3LYP) =  -706.424758917     A.U. after   11 cycles
 SCF Done:  E(RB3LYP) =  -706.424772066     A.U. after   10 cycles
 SCF Done:  E(RB3LYP) =  -706.424759165     A.U. after   10 cycles
 SCF Done:  E(RB3LYP) =  -706.424759220     A.U. after    9 cycles
 SCF Done:  E(RB3LYP) =  -706.424772376     A.U. after   10 cycles
 SCF Done:  E(RB3LYP) =  -706.424758141     A.U. after   10 cycles
 Optimization completed.
    -- Stationary point found.

                         Standard orientation:
 ---------------------------------------------------------------------
 Center     Atomic      Atomic             Coordinates (Angstroms)
 Number     Number       Type             X           Y           Z
 ---------------------------------------------------------------------
      1          6           0        0.442451    0.829872    0.223887
      2          8           0        0.395642    1.222670    1.335442
      3          6           0        0.216955    1.458658   -1.102306
      4          1           0       -0.043988    0.714753   -1.852507
      5          1           0       -0.568575    2.214173   -1.013570
      6          1           0        1.163350    1.943233   -1.384197
      7         17           0       -1.875857   -0.724377    0.000828
      8          6           0        1.484344   -0.736994   -0.039530
      9          7           0        2.187306   -1.664045   -0.134235
 ---------------------------------------------------------------------

 The electronic state is 1-A.
 Alpha  occ. eigenvalues -- -101.41963 -19.18749 -14.31998 -10.34129 -10.20786
 Alpha  occ. eigenvalues --  -10.19612  -9.33331  -7.09175  -7.09076  -7.09069
 Alpha  occ. eigenvalues --   -1.09348  -0.87962  -0.75980  -0.67345  -0.55995
 Alpha  occ. eigenvalues --   -0.49289  -0.46058  -0.45334  -0.40063  -0.38174
 Alpha  occ. eigenvalues --   -0.36962  -0.32141  -0.32017  -0.28773  -0.21915
 Alpha  occ. eigenvalues --   -0.21648  -0.21630
 Alpha virt. eigenvalues --   -0.03378   0.00706   0.02673   0.04229   0.05132
 Alpha virt. eigenvalues --    0.06389   0.06647   0.07731   0.09033   0.09764
 Alpha virt. eigenvalues --    0.10251   0.10486   0.10750   0.12956   0.13518

 Mulliken charges:
               1
     1  C    0.477283
     2  O   -0.273746
     3  C   -0.685629
     4  H    0.278036
     5  H    0.264738
     6  H    0.270293
     7  Cl  -0.852662
     8  C    0.117529
     9  N   -0.595840
 Sum of Mulliken charges =  -1.00000

 Dipole moment (field-independent basis, Debye):
    X=              3.8958    Y=              7.8691    Z=             -2.7415  Tot=              9.1987
 Quadrupole moment (field-independent basis, Debye-Ang):
   XX=            -72.0689   YY=            -53.8268   ZZ=            -47.2354
   XY=              3.0381   XZ=             -0.1933   YZ=             -5.0040

 Normal termination of Gaussian 16 at Wed Jan  8 01:58:02 2020.
