 Gaussian 16, Revision A.03,
 Gaussian 16:  AS64L-G16RevA.03 25-Dec-2016

 ----------------------------------------------------------------------
 #p opt=modredundant b3lyp/6-31+g(d) scrf=(smd, solvent=tetrahydrofuran
 )
 ----------------------------------------------------------------------

 -----
 title
 -----
 Symbolic Z-matrix:
 Charge = -1 Multiplicity = 1

 SCF Done:  E(RB3LYP) =  -706.400923812     A.U. after   14 cycles
 SCF Done:  E(RB3LYP) =  -706.416078785     A.U. after   12 cycles
 SCF Done:  E(RB3LYP) =  -706.418261237     A.U. after   12 cycles
 SCF Done:  E(RB3LYP) =  -706.418500710     A.U. after   11 cycles
 SCF Done:  E(RB3LYP) =  -706.418530400     A.U. after   10 cycles
 SCF Done:  E(RB3LYP) =  -706.418543523     A.U. after   10 cycles
 SCF Done:  E(RB3LYP) =  -706.418546067     A.U. after   10 cycles
 SCF Done:  E(RB3LYP) =  -706.418546797     A.U. after    9 cycles
 SCF Done:  E(RB3LYP) =  -706.418546765     A.U. after    9 cycles
 Optimization completed.
    -- Stationary point found.

                         Standard orientation:
 ---------------------------------------------------------------------
 Center     Atomic      Atomic             Coordinates (Angstroms)
 Number     Number       Type             X           Y           Z
 ---------------------------------------------------------------------
      1          6           0       -0.094757    0.618637    0.243306
      2          8           0       -0.184315    1.037713    1.375175
      3          6           0       -0.284268    1.431586   -1.017128
      4          1           0       -0.138969    0.831341   -1.916086
      5          1           0       -1.295313    1.853857   -1.012756
      6          1           0        0.444509    2.251557   -1.000112
      7         17           0       -1.326812   -1.051221   -0.078590
      8          6           0        1.537085   -0.307532   -0.055533
      9          7           0        2.581677   -0.831979   -0.108613
 ---------------------------------------------------------------------

 The electronic state is 1-A.
 Alpha  occ. eigenvalues -- -101.46634 -19.12223 -14.30266 -10.31041 -10.18504
 Alpha  occ. eigenvalues --  -10.17514  -9.38222  -7.14329  -7.13798  -7.13788
 Alpha  occ. eigenvalues --   -1.03032  -0.86293  -0.75396  -0.71199  -0.53632
 Alpha  occ. eigenvalues --   -0.46044  -0.43203  -0.41877  -0.38148  -0.35962
 Alpha  occ. eigenvalues --   -0.34915  -0.30861  -0.30450  -0.25953  -0.25684
 Alpha  occ. eigenvalues --   -0.24437  -0.23996
 Alpha virt. eigenvalues --    0.00034   0.02431   0.03849   0.05412   0.05517
 Alpha virt. eigenvalues --    0.07141   0.07283   0.08271   0.09423   0.10153
 Alpha virt. eigenvalues --    0.10287   0.10531   0.11874   0.13204   0.13818

 Mulliken charges:
               1
     1  C    0.202521
     2  O   -0.362350
     3  C   -0.591842
     4  H    0.243233
     5  H    0.242484
     6  H    0.240676
     7  Cl  -0.413528
     8  C    0.093618
     9  N   -0.654812
 Sum of Mulliken charges =  -1.00000

 Dipole moment (field-independent basis, Debye):
    X=             -2.6476    Y=              4.3672    Z=             -2.9160  Tot=              5.8809
 Quadrupole moment (field-independent basis, Debye-Ang):
   XX=            -67.7916   YY=            -50.7501   ZZ=            -49.4054
   XY=              2.3666   XZ=              1.4225   YZ=             -4.7908

 Normal termination of Gaussian 16 at Wed Jan  8 00:37:38 2020.
