 Gaussian 16, Revision A.03,
 Gaussian 16:  AS64L-G16RevA.03 25-Dec-2016

 ----------------------------------------------------------------------
 #p opt=modredundant b3lyp/6-31+g(d) scrf=(smd, solvent=tetrahydrofuran
 )
 ----------------------------------------------------------------------

 -----
 title
 -----
 Symbolic Z-matrix:
 Charge = -1 Multiplicity = 1

 SCF Done:  E(RB3LYP) =  -706.392983589     A.U. after   14 cycles
 SCF Done:  E(RB3LYP) =  -706.409018713     A.U. after   12 cycles
 SCF Done:  E(RB3LYP) =  -706.410763938     A.U. after   12 cycles
 SCF Done:  E(RB3LYP) =  -706.410961420     A.U. after   11 cycles
 SCF Done:  E(RB3LYP) =  -706.410990463     A.U. after   10 cycles
 SCF Done:  E(RB3LYP) =  -706.411014300     A.U. after   11 cycles
 SCF Done:  E(RB3LYP) =  -706.411018318     A.U. after   10 cycles
 SCF Done:  E(RB3LYP) =  -706.411020689     A.U. after    9 cycles
 SCF Done:  E(RB3LYP) =  -706.411022911     A.U. after    9 cycles
 SCF Done:  E(RB3LYP) =  -706.411023814     A.U. after    8 cycles
 SCF Done:  E(RB3LYP) =  -706.411024429     A.U. after    8 cycles
 Optimization completed.
    -- Stationary point found.

                         Standard orientation:
 ---------------------------------------------------------------------
 Center     Atomic      Atomic             Coordinates (Angstroms)
 Number     Number       Type             X           Y           Z
 ---------------------------------------------------------------------
      1          6           0       -0.252632    0.587337    0.249782
      2          8           0       -0.330738    0.979310    1.383410
      3          6           0       -0.341031    1.422656   -1.003499
      4          1           0       -0.108489    0.843347   -1.896739
      5          1           0       -1.362498    1.817455   -1.075362
      6          1           0        0.360158    2.258419   -0.907218
      7         17           0       -1.280041   -1.090216   -0.111116
      8          6           0        1.649381   -0.249448   -0.053756
      9          7           0        2.740445   -0.683330   -0.064877
 ---------------------------------------------------------------------

 The electronic state is 1-A.
 Alpha  occ. eigenvalues -- -101.48460 -19.13408 -14.28508 -10.31487 -10.17846
 Alpha  occ. eigenvalues --  -10.15925  -9.40076  -7.16261  -7.15610  -7.15593
 Alpha  occ. eigenvalues --   -1.04317  -0.84367  -0.77249  -0.71906  -0.52468
 Alpha  occ. eigenvalues --   -0.45393  -0.44046  -0.42674  -0.37604  -0.36883
 Alpha  occ. eigenvalues --   -0.34648  -0.29476  -0.28859  -0.27099  -0.26841
 Alpha  occ. eigenvalues --   -0.25147  -0.24342
 Alpha virt. eigenvalues --   -0.00502   0.02380   0.03881   0.05296   0.05987
 Alpha virt. eigenvalues --    0.06688   0.07859   0.08354   0.09214   0.09953
 Alpha virt. eigenvalues --    0.10543   0.10606   0.11552   0.13166   0.13779

 Mulliken charges:
               1
     1  C    0.100722
     2  O   -0.317460
     3  C   -0.546988
     4  H    0.249147
     5  H    0.242885
     6  H    0.246154
     7  Cl  -0.268352
     8  C   -0.027866
     9  N   -0.678242
 Sum of Mulliken charges =  -1.00000

 Dipole moment (field-independent basis, Debye):
    X=             -5.1016    Y=              4.1181    Z=             -2.8042  Tot=              7.1308
 Quadrupole moment (field-independent basis, Debye-Ang):
   XX=            -71.5111   YY=            -49.0734   ZZ=            -49.0326
   XY=              2.9345   XZ=              1.6021   YZ=             -4.3204

 Normal termination of Gaussian 16 at Wed Jan  8 00:24:55 2020.
