 Gaussian 16, Revision A.03,
 Gaussian 16:  AS64L-G16RevA.03 25-Dec-2016

 ----------------------------------------------------------------------
 #p opt=modredundant b3lyp/6-31+g(d) scrf=(smd, solvent=tetrahydrofuran
 )
 ----------------------------------------------------------------------

 -----
 title
 -----
 Symbolic Z-matrix:
 Charge = -1 Multiplicity = 1

 SCF Done:  E(RB3LYP) =  -706.387714609     A.U. after   14 cycles
 SCF Done:  E(RB3LYP) =  -706.410562443     A.U. after   12 cycles
 SCF Done:  E(RB3LYP) =  -706.414886936     A.U. after   12 cycles
 SCF Done:  E(RB3LYP) =  -706.415718574     A.U. after   12 cycles
 SCF Done:  E(RB3LYP) =  -706.415801145     A.U. after   11 cycles
 SCF Done:  E(RB3LYP) =  -706.415832554     A.U. after   10 cycles
 SCF Done:  E(RB3LYP) =  -706.415839929     A.U. after   10 cycles
 SCF Done:  E(RB3LYP) =  -706.415842007     A.U. after   10 cycles
 SCF Done:  E(RB3LYP) =  -706.415842146     A.U. after    8 cycles
 Optimization completed.
    -- Stationary point found.

                         Standard orientation:
 ---------------------------------------------------------------------
 Center     Atomic      Atomic             Coordinates (Angstroms)
 Number     Number       Type             X           Y           Z
 ---------------------------------------------------------------------
      1          6           0       -0.028231    0.732619    0.244367
      2          8           0       -0.115786    1.137694    1.359235
      3          6           0       -0.206107    1.435401   -1.067053
      4          1           0       -0.104073    0.750140   -1.906592
      5          1           0       -1.196008    1.903615   -1.079507
      6          1           0        0.565011    2.214602   -1.125978
      7         17           0       -1.459803   -1.042823   -0.052965
      8          6           0        1.610655   -0.378582   -0.037212
      9          7           0        2.602873   -0.996934   -0.100288
 ---------------------------------------------------------------------

 The electronic state is 1-A.
 Alpha  occ. eigenvalues -- -101.45080 -19.15800 -14.30075 -10.32612 -10.18708
 Alpha  occ. eigenvalues --  -10.18219  -9.36561  -7.12584  -7.12195  -7.12188
 Alpha  occ. eigenvalues --   -1.06550  -0.86014  -0.74948  -0.70612  -0.53628
 Alpha  occ. eigenvalues --   -0.46940  -0.44220  -0.44040  -0.38740  -0.36911
 Alpha  occ. eigenvalues --   -0.35633  -0.30538  -0.30303  -0.26777  -0.24626
 Alpha  occ. eigenvalues --   -0.23946  -0.23901
 Alpha virt. eigenvalues --   -0.01995   0.01764   0.03213   0.05231   0.05355
 Alpha virt. eigenvalues --    0.06602   0.07173   0.07934   0.09154   0.10066
 Alpha virt. eigenvalues --    0.10290   0.10568   0.11195   0.12996   0.13713

 Mulliken charges:
               1
     1  C    0.286239
     2  O   -0.284159
     3  C   -0.596683
     4  H    0.260710
     5  H    0.255232
     6  H    0.253766
     7  Cl  -0.571733
     8  C    0.040640
     9  N   -0.644012
 Sum of Mulliken charges =  -1.00000

 Dipole moment (field-independent basis, Debye):
    X=             -1.8976    Y=              6.2599    Z=             -2.6690  Tot=              7.0648
 Quadrupole moment (field-independent basis, Debye-Ang):
   XX=            -70.7405   YY=            -51.4139   ZZ=            -48.0503
   XY=              2.1899   XZ=              1.1193   YZ=             -4.7572

 Normal termination of Gaussian 16 at Wed Jan  8 01:04:59 2020.
