 Gaussian 16, Revision A.03,
 Gaussian 16:  AS64L-G16RevA.03 25-Dec-2016

 ----------------------------------------------------------------------
 #p opt=modredundant b3lyp/6-31+g(d) scrf=(smd, solvent=tetrahydrofuran
 )
 ----------------------------------------------------------------------

 -----
 title
 -----
 Symbolic Z-matrix:
 Charge = -1 Multiplicity = 1

 SCF Done:  E(RB3LYP) =  -706.419629112     A.U. after   14 cycles
 SCF Done:  E(RB3LYP) =  -706.433368095     A.U. after   12 cycles
 SCF Done:  E(RB3LYP) =  -706.435454240     A.U. after   12 cycles
 SCF Done:  E(RB3LYP) =  -706.435629936     A.U. after   11 cycles
 SCF Done:  E(RB3LYP) =  -706.435643816     A.U. after   10 cycles
 SCF Done:  E(RB3LYP) =  -706.435645192     A.U. after   10 cycles
 Optimization completed.
    -- Stationary point found.

                         Standard orientation:
 ---------------------------------------------------------------------
 Center     Atomic      Atomic             Coordinates (Angstroms)
 Number     Number       Type             X           Y           Z
 ---------------------------------------------------------------------
      1          6           0        0.153238    0.525822    0.213235
      2          8           0        0.153097    0.994505    1.378099
      3          6           0       -0.095432    1.456976   -0.977417
      4          1           0       -0.156022    0.923527   -1.930138
      5          1           0       -1.024431    2.008605   -0.806016
      6          1           0        0.735838    2.174020   -1.021166
      7         17           0       -1.414554   -0.847490   -0.043753
      8          6           0        1.257802   -0.449108   -0.068631
      9          7           0        2.196230   -1.122430   -0.218114
 ---------------------------------------------------------------------

 The electronic state is 1-A.
 Alpha  occ. eigenvalues -- -101.46029 -19.08710 -14.32596 -10.28464 -10.21735
 Alpha  occ. eigenvalues --  -10.16368  -9.37670  -7.13744  -7.13262  -7.13239
 Alpha  occ. eigenvalues --   -0.98955  -0.89068  -0.75432  -0.70396  -0.61301
 Alpha  occ. eigenvalues --   -0.45537  -0.42406  -0.40614  -0.37728  -0.35861
 Alpha  occ. eigenvalues --   -0.35648  -0.32189  -0.31786  -0.25317  -0.25026
 Alpha  occ. eigenvalues --   -0.22820  -0.22044
 Alpha virt. eigenvalues --   -0.00439   0.02652   0.04094   0.04725   0.05849
 Alpha virt. eigenvalues --    0.07172   0.07384   0.08969   0.09797   0.10264
 Alpha virt. eigenvalues --    0.10587   0.11390   0.13256   0.13889   0.14472

 Mulliken charges:
               1
     1  C    0.058918
     2  O   -0.494842
     3  C   -0.596687
     4  H    0.225928
     5  H    0.236871
     6  H    0.226553
     7  Cl  -0.435393
     8  C    0.418002
     9  N   -0.639349
 Sum of Mulliken charges =  -1.00000

 Dipole moment (field-independent basis, Debye):
    X=             -0.3329    Y=              3.1480    Z=             -3.4037  Tot=              4.6482
 Quadrupole moment (field-independent basis, Debye-Ang):
   XX=            -61.5022   YY=            -52.2751   ZZ=            -51.0131
   XY=              2.1559   XZ=              0.4551   YZ=             -5.4217

 Normal termination of Gaussian 16 at Wed Jan  8 00:30:25 2020.
