 Gaussian 16, Revision A.03,
 Gaussian 16:  AS64L-G16RevA.03 25-Dec-2016

 ----------------------------------------------------------------------
 #p opt=modredundant b3lyp/6-31+g(d) scrf=(smd, solvent=tetrahydrofuran
 )
 ----------------------------------------------------------------------

 -----
 title
 -----
 Symbolic Z-matrix:
 Charge = -1 Multiplicity = 1

 SCF Done:  E(RB3LYP) =  -706.333175274     A.U. after   14 cycles
 SCF Done:  E(RB3LYP) =  -706.371911750     A.U. after   13 cycles
 SCF Done:  E(RB3LYP) =  -706.386449915     A.U. after   13 cycles
 SCF Done:  E(RB3LYP) =  -706.394171747     A.U. after   12 cycles
 SCF Done:  E(RB3LYP) =  -706.396062689     A.U. after   11 cycles
 SCF Done:  E(RB3LYP) =  -706.396529464     A.U. after   11 cycles
 SCF Done:  E(RB3LYP) =  -706.396691819     A.U. after   11 cycles
 SCF Done:  E(RB3LYP) =  -706.396720832     A.U. after   10 cycles
 SCF Done:  E(RB3LYP) =  -706.396769028     A.U. after   11 cycles
 SCF Done:  E(RB3LYP) =  -706.396790264     A.U. after   10 cycles
 SCF Done:  E(RB3LYP) =  -706.396804695     A.U. after   10 cycles
 SCF Done:  E(RB3LYP) =  -706.396826467     A.U. after   10 cycles
 SCF Done:  E(RB3LYP) =  -706.396842480     A.U. after   10 cycles
 SCF Done:  E(RB3LYP) =  -706.396844395     A.U. after    9 cycles
 SCF Done:  E(RB3LYP) =  -706.396844731     A.U. after    9 cycles
 SCF Done:  E(RB3LYP) =  -706.396844231     A.U. after    9 cycles
 SCF Done:  E(RB3LYP) =  -706.396844004     A.U. after    8 cycles
 SCF Done:  E(RB3LYP) =  -706.396844709     A.U. after    9 cycles
 SCF Done:  E(RB3LYP) =  -706.396843943     A.U. after    9 cycles
 Optimization completed.
    -- Stationary point found.

                         Standard orientation:
 ---------------------------------------------------------------------
 Center     Atomic      Atomic             Coordinates (Angstroms)
 Number     Number       Type             X           Y           Z
 ---------------------------------------------------------------------
      1          6           0        0.295079    0.939515    0.224156
      2          8           0        0.179323    1.192275    1.335235
      3          6           0        0.117032    1.235932   -1.190114
      4          1           0        0.013363    0.311735   -1.756125
      5          1           0       -0.777316    1.862002   -1.286038
      6          1           0        1.017477    1.773916   -1.514002
      7         17           0       -2.253648   -0.810641   -0.001562
      8          6           0        2.126256   -0.596743    0.008053
      9          7           0        3.056243   -1.311026   -0.050248
 ---------------------------------------------------------------------

 The electronic state is 1-A.
 Alpha  occ. eigenvalues -- -101.41840 -19.26486 -14.29155 -10.38638 -10.23042
 Alpha  occ. eigenvalues --  -10.16634  -9.33172  -7.08989  -7.08938  -7.08931
 Alpha  occ. eigenvalues --   -1.17063  -0.84864  -0.80110  -0.67078  -0.57758
 Alpha  occ. eigenvalues --   -0.50994  -0.50667  -0.49975  -0.42446  -0.42187
 Alpha  occ. eigenvalues --   -0.37667  -0.29485  -0.29454  -0.27374  -0.21862
 Alpha  occ. eigenvalues --   -0.21601  -0.21563
 Alpha virt. eigenvalues --   -0.06398  -0.04588   0.02163   0.04608   0.04640
 Alpha virt. eigenvalues --    0.05284   0.06855   0.07355   0.08583   0.09684
 Alpha virt. eigenvalues --    0.09916   0.10347   0.10774   0.12501   0.13284

 Mulliken charges:
               1
     1  C    0.625386
     2  O   -0.164840
     3  C   -0.691164
     4  H    0.332104
     5  H    0.300832
     6  H    0.307319
     7  Cl  -0.911522
     8  C   -0.166275
     9  N   -0.631840
 Sum of Mulliken charges =  -1.00000

 Dipole moment (field-independent basis, Debye):
    X=              1.4175    Y=             10.5379    Z=             -2.8664  Tot=             11.0124
 Quadrupole moment (field-independent basis, Debye-Ang):
   XX=            -97.0662   YY=            -50.4653   ZZ=            -44.4943
   XY=              4.0130   XZ=              0.0863   YZ=             -3.9810

 Normal termination of Gaussian 16 at Wed Jan  8 02:53:51 2020.
