 Gaussian 16, Revision A.03,
 Gaussian 16:  AS64L-G16RevA.03 25-Dec-2016

 ----------------------------------------------------------------------
 #p opt=modredundant b3lyp/6-31+g(d) scrf=(smd, solvent=tetrahydrofuran
 )
 ----------------------------------------------------------------------

 -----
 title
 -----
 Symbolic Z-matrix:
 Charge = -1 Multiplicity = 1

 SCF Done:  E(RB3LYP) =  -706.330965580     A.U. after   14 cycles
 SCF Done:  E(RB3LYP) =  -706.358138476     A.U. after   12 cycles
 SCF Done:  E(RB3LYP) =  -706.364913937     A.U. after   12 cycles
 SCF Done:  E(RB3LYP) =  -706.365673947     A.U. after   11 cycles
 SCF Done:  E(RB3LYP) =  -706.365713108     A.U. after   11 cycles
 SCF Done:  E(RB3LYP) =  -706.365733263     A.U. after   10 cycles
 SCF Done:  E(RB3LYP) =  -706.365747251     A.U. after   11 cycles
 SCF Done:  E(RB3LYP) =  -706.365750744     A.U. after   10 cycles
 SCF Done:  E(RB3LYP) =  -706.365768343     A.U. after   11 cycles
 SCF Done:  E(RB3LYP) =  -706.365825256     A.U. after   11 cycles
 SCF Done:  E(RB3LYP) =  -706.366042996     A.U. after   13 cycles
 SCF Done:  E(RB3LYP) =  -706.366074772     A.U. after   11 cycles
 SCF Done:  E(RB3LYP) =  -706.366078191     A.U. after   11 cycles
 SCF Done:  E(RB3LYP) =  -706.366072290     A.U. after   10 cycles
 SCF Done:  E(RB3LYP) =  -706.366021905     A.U. after   11 cycles
 SCF Done:  E(RB3LYP) =  -706.366077112     A.U. after   11 cycles
 SCF Done:  E(RB3LYP) =  -706.366078183     A.U. after   10 cycles
 SCF Done:  E(RB3LYP) =  -706.366076086     A.U. after   11 cycles
 SCF Done:  E(RB3LYP) =  -706.366079369     A.U. after   10 cycles
 SCF Done:  E(RB3LYP) =  -706.366079324     A.U. after    8 cycles
 Optimization completed.
    -- Stationary point found.

                         Standard orientation:
 ---------------------------------------------------------------------
 Center     Atomic      Atomic             Coordinates (Angstroms)
 Number     Number       Type             X           Y           Z
 ---------------------------------------------------------------------
      1          6           0       -0.686833    0.317466    0.250735
      2          8           0       -0.491983    0.567618    1.440026
      3          6           0       -0.650349    1.446372   -0.772623
      4          1           0       -0.312442    1.106612   -1.754084
      5          1           0       -1.674107    1.836257   -0.873713
      6          1           0       -0.002321    2.245914   -0.409806
      7         17           0       -1.164521   -1.024020   -0.220677
      8          6           0        1.999255   -0.205062   -0.342471
      9          7           0        3.107022   -0.239148    0.065009
 ---------------------------------------------------------------------

 The electronic state is 1-A.
 Alpha  occ. eigenvalues -- -101.55758 -19.12610 -14.25596 -10.29961 -10.17124
 Alpha  occ. eigenvalues --  -10.11929  -9.48098  -7.24368  -7.23576  -7.23375
 Alpha  occ. eigenvalues --   -1.04589  -0.91278  -0.81184  -0.71774  -0.55528
 Alpha  occ. eigenvalues --   -0.46526  -0.45628  -0.44683  -0.38419  -0.37187
 Alpha  occ. eigenvalues --   -0.34769  -0.31143  -0.30537  -0.26244  -0.26106
 Alpha  occ. eigenvalues --   -0.25230  -0.22787
 Alpha virt. eigenvalues --   -0.01386   0.02905   0.04774   0.05575   0.06034
 Alpha virt. eigenvalues --    0.07100   0.08305   0.08872   0.09259   0.09500
 Alpha virt. eigenvalues --    0.11289   0.11365   0.12086   0.13368   0.13638

 Mulliken charges:
               1
     1  C   -0.502463
     2  O   -0.364298
     3  C   -0.384061
     4  H    0.242508
     5  H    0.239191
     6  H    0.248838
     7  Cl   0.445164
     8  C   -0.290432
     9  N   -0.634448
 Sum of Mulliken charges =  -1.00000

 Dipole moment (field-independent basis, Debye):
    X=            -12.1404    Y=              1.1400    Z=             -2.7923  Tot=             12.5095
 Quadrupole moment (field-independent basis, Debye-Ang):
   XX=            -79.7447   YY=            -44.1573   ZZ=            -50.9457
   XY=              2.6712   XZ=              2.0903   YZ=             -2.4262

 Normal termination of Gaussian 16 at Tue Jan  7 23:21:52 2020.
