 Gaussian 16, Revision A.03,
 Gaussian 16:  AS64L-G16RevA.03 25-Dec-2016

 ----------------------------------------------------------------------
 #p opt=modredundant b3lyp/6-31+g(d) scrf=(smd, solvent=tetrahydrofuran
 )
 ----------------------------------------------------------------------

 -----
 title
 -----
 Symbolic Z-matrix:
 Charge = -1 Multiplicity = 1

 SCF Done:  E(RB3LYP) =  -706.365334574     A.U. after   14 cycles
 SCF Done:  E(RB3LYP) =  -706.396857692     A.U. after   13 cycles
 SCF Done:  E(RB3LYP) =  -706.402904248     A.U. after   12 cycles
 SCF Done:  E(RB3LYP) =  -706.404530764     A.U. after   12 cycles
 SCF Done:  E(RB3LYP) =  -706.404617539     A.U. after   11 cycles
 SCF Done:  E(RB3LYP) =  -706.404631402     A.U. after   10 cycles
 SCF Done:  E(RB3LYP) =  -706.404643934     A.U. after   10 cycles
 SCF Done:  E(RB3LYP) =  -706.404650046     A.U. after   10 cycles
 SCF Done:  E(RB3LYP) =  -706.404652904     A.U. after    9 cycles
 SCF Done:  E(RB3LYP) =  -706.404655437     A.U. after    9 cycles
 SCF Done:  E(RB3LYP) =  -706.404657700     A.U. after   10 cycles
 SCF Done:  E(RB3LYP) =  -706.404660801     A.U. after   10 cycles
 SCF Done:  E(RB3LYP) =  -706.404662419     A.U. after    9 cycles
 SCF Done:  E(RB3LYP) =  -706.404661935     A.U. after    8 cycles
 SCF Done:  E(RB3LYP) =  -706.404662605     A.U. after    9 cycles
 Optimization completed.
    -- Stationary point found.

                         Standard orientation:
 ---------------------------------------------------------------------
 Center     Atomic      Atomic             Coordinates (Angstroms)
 Number     Number       Type             X           Y           Z
 ---------------------------------------------------------------------
      1          6           0       -0.269230    0.780114    0.251421
      2          8           0       -0.280044    1.117627    1.366217
      3          6           0       -0.215402    1.388748   -1.098664
      4          1           0        0.002638    0.645273   -1.860102
      5          1           0       -1.198816    1.839908   -1.283422
      6          1           0        0.556955    2.165341   -1.080377
      7         17           0       -1.581009   -1.080500   -0.076224
      8          6           0        1.945465   -0.350471   -0.007233
      9          7           0        2.998819   -0.876196   -0.040454
 ---------------------------------------------------------------------

 The electronic state is 1-A.
 Alpha  occ. eigenvalues -- -101.46940 -19.20994 -14.27139 -10.35131 -10.20672
 Alpha  occ. eigenvalues --  -10.13963  -9.38369  -7.14459  -7.13979  -7.13961
 Alpha  occ. eigenvalues --   -1.11664  -0.82808  -0.77157  -0.72267  -0.54651
 Alpha  occ. eigenvalues --   -0.47363  -0.47131  -0.46755  -0.39579  -0.39318
 Alpha  occ. eigenvalues --   -0.35882  -0.27783  -0.27635  -0.26799  -0.25938
 Alpha  occ. eigenvalues --   -0.25482  -0.24237
 Alpha virt. eigenvalues --   -0.04675  -0.00989   0.02902   0.04948   0.05439
 Alpha virt. eigenvalues --    0.05665   0.07861   0.08389   0.08940   0.09785
 Alpha virt. eigenvalues --    0.10255   0.10963   0.11200   0.12802   0.13494

 Mulliken charges:
               1
     1  C    0.252087
     2  O   -0.178613
     3  C   -0.566510
     4  H    0.292092
     5  H    0.275542
     6  H    0.275904
     7  Cl  -0.496849
     8  C   -0.191557
     9  N   -0.662096
 Sum of Mulliken charges =  -1.00000

 Dipole moment (field-independent basis, Debye):
    X=             -6.2422    Y=              7.5744    Z=             -2.5144  Tot=             10.1320
 Quadrupole moment (field-independent basis, Debye-Ang):
   XX=            -82.7135   YY=            -48.9451   ZZ=            -46.3443
   XY=              3.3629   XZ=              0.8620   YZ=             -4.2020

 Normal termination of Gaussian 16 at Wed Jan  8 01:12:01 2020.
