 Gaussian 16, Revision A.03,
 Gaussian 16:  AS64L-G16RevA.03 25-Dec-2016

 ----------------------------------------------------------------------
 #p opt=modredundant b3lyp/6-31+g(d) scrf=(smd, solvent=tetrahydrofuran
 )
 ----------------------------------------------------------------------

 -----
 title
 -----
 Symbolic Z-matrix:
 Charge = -1 Multiplicity = 1

 SCF Done:  E(RB3LYP) =  -706.383460857     A.U. after   14 cycles
 SCF Done:  E(RB3LYP) =  -706.406625145     A.U. after   12 cycles
 SCF Done:  E(RB3LYP) =  -706.410101083     A.U. after   12 cycles
 SCF Done:  E(RB3LYP) =  -706.410638353     A.U. after   12 cycles
 SCF Done:  E(RB3LYP) =  -706.410678136     A.U. after   10 cycles
 SCF Done:  E(RB3LYP) =  -706.410687170     A.U. after   10 cycles
 SCF Done:  E(RB3LYP) =  -706.410688143     A.U. after   10 cycles
 SCF Done:  E(RB3LYP) =  -706.410688284     A.U. after    9 cycles
 Optimization completed.
    -- Stationary point found.

                         Standard orientation:
 ---------------------------------------------------------------------
 Center     Atomic      Atomic             Coordinates (Angstroms)
 Number     Number       Type             X           Y           Z
 ---------------------------------------------------------------------
      1          6           0       -0.388138    0.612478    0.255896
      2          8           0       -0.392604    0.959563    1.390504
      3          6           0       -0.359869    1.420018   -1.005798
      4          1           0       -0.072441    0.817374   -1.864862
      5          1           0       -1.372628    1.817658   -1.158719
      6          1           0        0.339600    2.249859   -0.870329
      7         17           0       -1.341074   -1.104746   -0.122326
      8          6           0        1.827095   -0.250440   -0.072914
      9          7           0        2.938576   -0.639007   -0.030528
 ---------------------------------------------------------------------

 The electronic state is 1-A.
 Alpha  occ. eigenvalues -- -101.49636 -19.16496 -14.26873 -10.32767 -10.18799
 Alpha  occ. eigenvalues --  -10.13584  -9.41217  -7.17430  -7.16748  -7.16714
 Alpha  occ. eigenvalues --   -1.07336  -0.82560  -0.78282  -0.73082  -0.53025
 Alpha  occ. eigenvalues --   -0.45549  -0.45261  -0.44636  -0.38153  -0.37393
 Alpha  occ. eigenvalues --   -0.35199  -0.28613  -0.28081  -0.27380  -0.27053
 Alpha  occ. eigenvalues --   -0.26743  -0.23770
 Alpha virt. eigenvalues --   -0.01886   0.01385   0.03407   0.05073   0.05753
 Alpha virt. eigenvalues --    0.06051   0.08285   0.08813   0.09035   0.09773
 Alpha virt. eigenvalues --    0.10715   0.11002   0.11173   0.13126   0.13677

 Mulliken charges:
               1
     1  C   -0.013680
     2  O   -0.243338
     3  C   -0.498244
     4  H    0.265801
     5  H    0.253810
     6  H    0.257935
     7  Cl  -0.199463
     8  C   -0.145343
     9  N   -0.677478
 Sum of Mulliken charges =  -1.00000

 Dipole moment (field-independent basis, Debye):
    X=             -7.7059    Y=              4.7710    Z=             -2.5702  Tot=              9.4207
 Quadrupole moment (field-independent basis, Debye-Ang):
   XX=            -77.8125   YY=            -47.7194   ZZ=            -48.1161
   XY=              3.2739   XZ=              1.4054   YZ=             -3.9251

 Normal termination of Gaussian 16 at Wed Jan  8 00:24:31 2020.
