 Gaussian 16, Revision A.03,
 Gaussian 16:  AS64L-G16RevA.03 25-Dec-2016

 ----------------------------------------------------------------------
 #p opt=modredundant b3lyp/6-31+g(d) scrf=(smd, solvent=tetrahydrofuran
 )
 ----------------------------------------------------------------------

 -----
 title
 -----
 Symbolic Z-matrix:
 Charge = -1 Multiplicity = 1

 SCF Done:  E(RB3LYP) =  -706.332569522     A.U. after   14 cycles
 SCF Done:  E(RB3LYP) =  -706.352269224     A.U. after   12 cycles
 SCF Done:  E(RB3LYP) =  -706.354449977     A.U. after   12 cycles
 SCF Done:  E(RB3LYP) =  -706.354681965     A.U. after   11 cycles
 SCF Done:  E(RB3LYP) =  -706.354714816     A.U. after   11 cycles
 SCF Done:  E(RB3LYP) =  -706.354820515     A.U. after   11 cycles
 SCF Done:  E(RB3LYP) =  -706.354840763     A.U. after   10 cycles
 SCF Done:  E(RB3LYP) =  -706.354875878     A.U. after   10 cycles
 SCF Done:  E(RB3LYP) =  -706.354877191     A.U. after   11 cycles
 SCF Done:  E(RB3LYP) =  -706.354878501     A.U. after   11 cycles
 SCF Done:  E(RB3LYP) =  -706.354881070     A.U. after   11 cycles
 SCF Done:  E(RB3LYP) =  -706.354881520     A.U. after   10 cycles
 SCF Done:  E(RB3LYP) =  -706.354881384     A.U. after   10 cycles
 SCF Done:  E(RB3LYP) =  -706.354881174     A.U. after   10 cycles
 SCF Done:  E(RB3LYP) =  -706.354881140     A.U. after    9 cycles
 SCF Done:  E(RB3LYP) =  -706.354880996     A.U. after    9 cycles
 SCF Done:  E(RB3LYP) =  -706.354880806     A.U. after    9 cycles
 SCF Done:  E(RB3LYP) =  -706.354880599     A.U. after    9 cycles
 Optimization completed.
    -- Stationary point found.

                         Standard orientation:
 ---------------------------------------------------------------------
 Center     Atomic      Atomic             Coordinates (Angstroms)
 Number     Number       Type             X           Y           Z
 ---------------------------------------------------------------------
      1          6           0       -0.534228    0.307835    0.243490
      2          8           0       -0.391179    0.553816    1.447782
      3          6           0       -0.482394    1.465375   -0.755626
      4          1           0       -0.235002    1.137455   -1.767580
      5          1           0       -1.482264    1.926393   -0.770042
      6          1           0        0.241352    2.208500   -0.417151
      7         17           0       -1.174966   -0.963128   -0.229911
      8          6           0        1.741581   -0.258795   -0.266044
      9          7           0        2.890002   -0.345169   -0.007132
 ---------------------------------------------------------------------

 The electronic state is 1-A.
 Alpha  occ. eigenvalues -- -101.54712 -19.10984 -14.25868 -10.29364 -10.16572
 Alpha  occ. eigenvalues --  -10.12176  -9.47075  -7.23352  -7.22528  -7.22366
 Alpha  occ. eigenvalues --   -1.03230  -0.90180  -0.81513  -0.71010  -0.54777
 Alpha  occ. eigenvalues --   -0.45729  -0.45504  -0.43639  -0.37761  -0.36688
 Alpha  occ. eigenvalues --   -0.34605  -0.30309  -0.29696  -0.26484  -0.26115
 Alpha  occ. eigenvalues --   -0.24119  -0.22482
 Alpha virt. eigenvalues --   -0.00686   0.03069   0.04947   0.05876   0.06326
 Alpha virt. eigenvalues --    0.07432   0.08661   0.09310   0.09394   0.09561
 Alpha virt. eigenvalues --    0.10932   0.11236   0.12422   0.13638   0.13933

 Mulliken charges:
               1
     1  C   -0.515263
     2  O   -0.378743
     3  C   -0.340242
     4  H    0.234275
     5  H    0.226853
     6  H    0.244025
     7  Cl   0.406826
     8  C   -0.210115
     9  N   -0.667615
 Sum of Mulliken charges =  -1.00000

 Dipole moment (field-independent basis, Debye):
    X=            -10.1634    Y=              1.3701    Z=             -2.9751  Tot=             10.6782
 Quadrupole moment (field-independent basis, Debye-Ang):
   XX=            -74.6199   YY=            -44.8219   ZZ=            -51.0957
   XY=              3.6194   XZ=              2.0663   YZ=             -2.4493

 Normal termination of Gaussian 16 at Tue Jan  7 23:03:28 2020.
