 Gaussian 16, Revision A.03,
 Gaussian 16:  AS64L-G16RevA.03 25-Dec-2016

 ----------------------------------------------------------------------
 #p opt=modredundant b3lyp/6-31+g(d) scrf=(smd, solvent=tetrahydrofuran
 )
 ----------------------------------------------------------------------

 -----
 title
 -----
 Symbolic Z-matrix:
 Charge = -1 Multiplicity = 1

 SCF Done:  E(RB3LYP) =  -706.331144136     A.U. after   14 cycles
 SCF Done:  E(RB3LYP) =  -706.335585059     A.U. after   12 cycles
 SCF Done:  E(RB3LYP) =  -706.336392134     A.U. after   12 cycles
 SCF Done:  E(RB3LYP) =  -706.336465889     A.U. after   11 cycles
 SCF Done:  E(RB3LYP) =  -706.336482257     A.U. after   11 cycles
 SCF Done:  E(RB3LYP) =  -706.336483231     A.U. after    9 cycles
 SCF Done:  E(RB3LYP) =  -706.336483454     A.U. after    9 cycles
 Optimization completed.
    -- Stationary point found.

                         Standard orientation:
 ---------------------------------------------------------------------
 Center     Atomic      Atomic             Coordinates (Angstroms)
 Number     Number       Type             X           Y           Z
 ---------------------------------------------------------------------
      1          6           0       -0.140179    0.200252    0.177808
      2          8           0       -0.169651    0.550894    1.490052
      3          6           0       -0.297734    1.483375   -0.739288
      4          1           0       -0.214885    1.257596   -1.811845
      5          1           0       -1.291806    1.898709   -0.533574
      6          1           0        0.459440    2.222500   -0.461548
      7         17           0       -1.132246   -0.852837   -0.218179
      8          6           0        1.263056   -0.254025   -0.095258
      9          7           0        2.385968   -0.552190   -0.209140
 ---------------------------------------------------------------------

 The electronic state is 1-A.
 Alpha  occ. eigenvalues -- -101.51651 -19.02405 -14.31143 -10.26030 -10.20363
 Alpha  occ. eigenvalues --  -10.15321  -9.44112  -7.20410  -7.19481  -7.19444
 Alpha  occ. eigenvalues --   -0.96861  -0.87561  -0.84139  -0.69273  -0.60418
 Alpha  occ. eigenvalues --   -0.49361  -0.42933  -0.40284  -0.37291  -0.35559
 Alpha  occ. eigenvalues --   -0.35441  -0.31682  -0.30949  -0.27924  -0.26490
 Alpha  occ. eigenvalues --   -0.17949  -0.17214
 Alpha virt. eigenvalues --    0.02595   0.04561   0.04749   0.05496   0.06434
 Alpha virt. eigenvalues --    0.07376   0.07634   0.09560   0.09663   0.10154
 Alpha virt. eigenvalues --    0.10179   0.11457   0.14062   0.14371   0.15200

 Mulliken charges:
               1
     1  C   -0.015543
     2  O   -0.712874
     3  C   -0.644644
     4  H    0.206011
     5  H    0.216983
     6  H    0.219337
     7  Cl   0.106328
     8  C    0.332109
     9  N   -0.707708
 Sum of Mulliken charges =  -1.00000

 Dipole moment (field-independent basis, Debye):
    X=             -3.5459    Y=              0.1813    Z=             -5.0418  Tot=              6.1666
 Quadrupole moment (field-independent basis, Debye-Ang):
   XX=            -60.4266   YY=            -47.3742   ZZ=            -55.2690
   XY=              3.3291   XZ=              2.3232   YZ=             -3.8351

 Normal termination of Gaussian 16 at Tue Jan  7 22:48:57 2020.
