 Gaussian 16, Revision A.03,
 Gaussian 16:  AS64L-G16RevA.03 25-Dec-2016

 ----------------------------------------------------------------------
 #p opt=modredundant b3lyp/6-31+g(d) scrf=(smd, solvent=tetrahydrofuran
 )
 ----------------------------------------------------------------------

 -----
 title
 -----
 Symbolic Z-matrix:
 Charge = -1 Multiplicity = 1

 SCF Done:  E(RB3LYP) =  -706.374084681     A.U. after   14 cycles
 SCF Done:  E(RB3LYP) =  -706.403421035     A.U. after   12 cycles
 SCF Done:  E(RB3LYP) =  -706.408669143     A.U. after   12 cycles
 SCF Done:  E(RB3LYP) =  -706.410020932     A.U. after   12 cycles
 SCF Done:  E(RB3LYP) =  -706.410083565     A.U. after   11 cycles
 SCF Done:  E(RB3LYP) =  -706.410090316     A.U. after   10 cycles
 SCF Done:  E(RB3LYP) =  -706.410096789     A.U. after   10 cycles
 SCF Done:  E(RB3LYP) =  -706.410100601     A.U. after    9 cycles
 SCF Done:  E(RB3LYP) =  -706.410103369     A.U. after   10 cycles
 SCF Done:  E(RB3LYP) =  -706.410106471     A.U. after    9 cycles
 SCF Done:  E(RB3LYP) =  -706.410123891     A.U. after    9 cycles
 SCF Done:  E(RB3LYP) =  -706.410130662     A.U. after   10 cycles
 SCF Done:  E(RB3LYP) =  -706.410133959     A.U. after    9 cycles
 SCF Done:  E(RB3LYP) =  -706.410140612     A.U. after   10 cycles
 SCF Done:  E(RB3LYP) =  -706.410143110     A.U. after    9 cycles
 SCF Done:  E(RB3LYP) =  -706.410145227     A.U. after   10 cycles
 SCF Done:  E(RB3LYP) =  -706.410143310     A.U. after    9 cycles
 SCF Done:  E(RB3LYP) =  -706.410144684     A.U. after    9 cycles
 SCF Done:  E(RB3LYP) =  -706.410145122     A.U. after    9 cycles
 SCF Done:  E(RB3LYP) =  -706.410144003     A.U. after    9 cycles
 Optimization completed.
    -- Stationary point found.

                         Standard orientation:
 ---------------------------------------------------------------------
 Center     Atomic      Atomic             Coordinates (Angstroms)
 Number     Number       Type             X           Y           Z
 ---------------------------------------------------------------------
      1          6           0       -0.435763    0.687378    0.251924
      2          8           0       -0.423331    1.026428    1.375573
      3          6           0       -0.333002    1.397085   -1.052316
      4          1           0       -0.031016    0.723783   -1.850621
      5          1           0       -1.329832    1.803714   -1.271272
      6          1           0        0.384288    2.215372   -0.942210
      7         17           0       -1.431890   -1.126052   -0.107525
      8          6           0        1.975851   -0.244028   -0.024849
      9          7           0        3.066118   -0.693433   -0.023015
 ---------------------------------------------------------------------

 The electronic state is 1-A.
 Alpha  occ. eigenvalues -- -101.49219 -19.19203 -14.26439 -10.34080 -10.19826
 Alpha  occ. eigenvalues --  -10.12992  -9.40728  -7.16913  -7.16285  -7.16249
 Alpha  occ. eigenvalues --   -1.09937  -0.82071  -0.77737  -0.73786  -0.53958
 Alpha  occ. eigenvalues --   -0.46545  -0.46304  -0.45996  -0.38933  -0.38464
 Alpha  occ. eigenvalues --   -0.35356  -0.28274  -0.27969  -0.27177  -0.26942
 Alpha  occ. eigenvalues --   -0.26775  -0.23595
 Alpha virt. eigenvalues --   -0.03163  -0.00363   0.03086   0.04926   0.05441
 Alpha virt. eigenvalues --    0.05822   0.08191   0.08652   0.08979   0.09684
 Alpha virt. eigenvalues --    0.10390   0.11211   0.11311   0.12974   0.13531

 Mulliken charges:
               1
     1  C    0.111434
     2  O   -0.206770
     3  C   -0.548127
     4  H    0.281482
     5  H    0.267121
     6  H    0.268697
     7  Cl  -0.294211
     8  C   -0.212958
     9  N   -0.666668
 Sum of Mulliken charges =  -1.00000

 Dipole moment (field-independent basis, Debye):
    X=             -8.5282    Y=              5.8833    Z=             -2.5530  Tot=             10.6705
 Quadrupole moment (field-independent basis, Debye-Ang):
   XX=            -82.5180   YY=            -47.7719   ZZ=            -47.1044
   XY=              3.3011   XZ=              1.1832   YZ=             -3.9729

 Normal termination of Gaussian 16 at Wed Jan  8 00:50:35 2020.
