 Gaussian 16, Revision A.03,
 Gaussian 16:  AS64L-G16RevA.03 25-Dec-2016

 ----------------------------------------------------------------------
 #p opt=modredundant b3lyp/6-31+g(d) scrf=(smd, solvent=tetrahydrofuran
 )
 ----------------------------------------------------------------------

 -----
 title
 -----
 Symbolic Z-matrix:
 Charge = -1 Multiplicity = 1

 SCF Done:  E(RB3LYP) =  -706.381467215     A.U. after   14 cycles
 SCF Done:  E(RB3LYP) =  -706.405251376     A.U. after   12 cycles
 SCF Done:  E(RB3LYP) =  -706.408720338     A.U. after   12 cycles
 SCF Done:  E(RB3LYP) =  -706.409376204     A.U. after   12 cycles
 SCF Done:  E(RB3LYP) =  -706.409449776     A.U. after   11 cycles
 SCF Done:  E(RB3LYP) =  -706.409491449     A.U. after   11 cycles
 SCF Done:  E(RB3LYP) =  -706.409499804     A.U. after   11 cycles
 SCF Done:  E(RB3LYP) =  -706.409503825     A.U. after   10 cycles
 SCF Done:  E(RB3LYP) =  -706.409506730     A.U. after   10 cycles
 SCF Done:  E(RB3LYP) =  -706.409508505     A.U. after    9 cycles
 SCF Done:  E(RB3LYP) =  -706.409509268     A.U. after    9 cycles
 Optimization completed.
    -- Stationary point found.

                         Standard orientation:
 ---------------------------------------------------------------------
 Center     Atomic      Atomic             Coordinates (Angstroms)
 Number     Number       Type             X           Y           Z
 ---------------------------------------------------------------------
      1          6           0       -0.199545    0.708601    0.251400
      2          8           0       -0.273679    1.090177    1.368023
      3          6           0       -0.274794    1.421102   -1.061761
      4          1           0       -0.063639    0.752014   -1.892840
      5          1           0       -1.285509    1.835284   -1.160069
      6          1           0        0.454976    2.238546   -1.037941
      7         17           0       -1.408667   -1.099063   -0.080833
      8          6           0        1.733705   -0.303088   -0.029721
      9          7           0        2.782105   -0.831840   -0.062670
 ---------------------------------------------------------------------

 The electronic state is 1-A.
 Alpha  occ. eigenvalues -- -101.46754 -19.16985 -14.28405 -10.33103 -10.19139
 Alpha  occ. eigenvalues --  -10.15800  -9.38252  -7.14352  -7.13844  -7.13832
 Alpha  occ. eigenvalues --   -1.07768  -0.84206  -0.75801  -0.72005  -0.53154
 Alpha  occ. eigenvalues --   -0.46194  -0.44974  -0.44800  -0.38231  -0.37696
 Alpha  occ. eigenvalues --   -0.35627  -0.29061  -0.28783  -0.26538  -0.25994
 Alpha  occ. eigenvalues --   -0.25189  -0.24528
 Alpha virt. eigenvalues --   -0.02680   0.01274   0.03219   0.05152   0.05728
 Alpha virt. eigenvalues --    0.06111   0.07686   0.08277   0.09092   0.09944
 Alpha virt. eigenvalues --    0.10542   0.10616   0.11093   0.12953   0.13658

 Mulliken charges:
               1
     1  C    0.198965
     2  O   -0.243508
     3  C   -0.556630
     4  H    0.267508
     5  H    0.257794
     6  H    0.258802
     7  Cl  -0.448316
     8  C   -0.069769
     9  N   -0.664846
 Sum of Mulliken charges =  -1.00000

 Dipole moment (field-independent basis, Debye):
    X=             -4.5689    Y=              6.0868    Z=             -2.5837  Tot=              8.0374
 Quadrupole moment (field-independent basis, Debye-Ang):
   XX=            -74.5306   YY=            -49.8276   ZZ=            -47.6667
   XY=              2.6978   XZ=              1.2491   YZ=             -4.4173

 Normal termination of Gaussian 16 at Wed Jan  8 00:52:22 2020.
