 Gaussian 16, Revision A.03,
 Gaussian 16:  AS64L-G16RevA.03 25-Dec-2016

 ----------------------------------------------------------------------
 #p opt=modredundant b3lyp/6-31+g(d) scrf=(smd, solvent=tetrahydrofuran
 )
 ----------------------------------------------------------------------

 -----
 title
 -----
 Symbolic Z-matrix:
 Charge = -1 Multiplicity = 1

 SCF Done:  E(RB3LYP) =  -706.386600909     A.U. after   14 cycles
 SCF Done:  E(RB3LYP) =  -706.390571188     A.U. after   12 cycles
 SCF Done:  E(RB3LYP) =  -706.391278706     A.U. after   12 cycles
 SCF Done:  E(RB3LYP) =  -706.391325154     A.U. after   11 cycles
 SCF Done:  E(RB3LYP) =  -706.391336126     A.U. after   11 cycles
 SCF Done:  E(RB3LYP) =  -706.391338761     A.U. after    9 cycles
 SCF Done:  E(RB3LYP) =  -706.391339101     A.U. after    8 cycles
 Optimization completed.
    -- Stationary point found.

                         Standard orientation:
 ---------------------------------------------------------------------
 Center     Atomic      Atomic             Coordinates (Angstroms)
 Number     Number       Type             X           Y           Z
 ---------------------------------------------------------------------
      1          6           0       -0.016349    0.295475    0.192775
      2          8           0       -0.016013    0.720816    1.457561
      3          6           0       -0.195939    1.467500   -0.839741
      4          1           0       -0.181446    1.131403   -1.884617
      5          1           0       -1.157027    1.946852   -0.624578
      6          1           0        0.606401    2.196451   -0.682842
      7         17           0       -1.237477   -0.838810   -0.142254
      8          6           0        1.210466   -0.321860   -0.078928
      9          7           0        2.272602   -0.775452   -0.242109
 ---------------------------------------------------------------------

 The electronic state is 1-A.
 Alpha  occ. eigenvalues -- -101.50438 -19.03593 -14.31592 -10.26123 -10.20748
 Alpha  occ. eigenvalues --  -10.15614  -9.42402  -7.18679  -7.17847  -7.17816
 Alpha  occ. eigenvalues --   -0.95018  -0.87952  -0.81857  -0.70034  -0.62661
 Alpha  occ. eigenvalues --   -0.47192  -0.42416  -0.39918  -0.37158  -0.35916
 Alpha  occ. eigenvalues --   -0.35120  -0.31500  -0.31109  -0.27965  -0.27118
 Alpha  occ. eigenvalues --   -0.19115  -0.18154
 Alpha virt. eigenvalues --    0.02695   0.03165   0.04519   0.05150   0.06188
 Alpha virt. eigenvalues --    0.07298   0.07633   0.09521   0.09851   0.10112
 Alpha virt. eigenvalues --    0.10375   0.11439   0.14060   0.14333   0.14818

 Mulliken charges:
               1
     1  C   -0.069381
     2  O   -0.670790
     3  C   -0.623449
     4  H    0.211327
     5  H    0.223648
     6  H    0.218879
     7  Cl  -0.037034
     8  C    0.446312
     9  N   -0.699512
 Sum of Mulliken charges =  -1.00000

 Dipole moment (field-independent basis, Debye):
    X=             -2.8532    Y=              0.7958    Z=             -4.5699  Tot=              5.4460
 Quadrupole moment (field-independent basis, Debye-Ang):
   XX=            -59.5363   YY=            -49.1856   ZZ=            -54.2146
   XY=              3.4163   XZ=              1.3646   YZ=             -4.9819

 Normal termination of Gaussian 16 at Tue Jan  7 23:16:06 2020.
