 Gaussian 16, Revision A.03,
 Gaussian 16:  AS64L-G16RevA.03 25-Dec-2016

 ----------------------------------------------------------------------
 #p opt=modredundant b3lyp/6-31+g(d) scrf=(smd, solvent=tetrahydrofuran
 )
 ----------------------------------------------------------------------

 -----
 title
 -----
 Symbolic Z-matrix:
 Charge = -1 Multiplicity = 1

 SCF Done:  E(RB3LYP) =  -706.262783682     A.U. after   16 cycles
 SCF Done:  E(RB3LYP) =  -706.263340732     A.U. after   12 cycles
 SCF Done:  E(RB3LYP) =  -706.263446053     A.U. after   13 cycles
 SCF Done:  E(RB3LYP) =  -706.263579892     A.U. after   12 cycles
 SCF Done:  E(RB3LYP) =  -706.263677209     A.U. after   12 cycles
 SCF Done:  E(RB3LYP) =  -706.263683593     A.U. after   13 cycles
 SCF Done:  E(RB3LYP) =  -706.263871350     A.U. after   12 cycles
 SCF Done:  E(RB3LYP) =  -706.263900704     A.U. after   11 cycles
 SCF Done:  E(RB3LYP) =  -706.263918224     A.U. after   11 cycles
 SCF Done:  E(RB3LYP) =  -706.263946917     A.U. after   11 cycles
 SCF Done:  E(RB3LYP) =  -706.263986228     A.U. after   11 cycles
 SCF Done:  E(RB3LYP) =  -706.264044980     A.U. after   11 cycles
 SCF Done:  E(RB3LYP) =  -706.264131628     A.U. after   12 cycles
 SCF Done:  E(RB3LYP) =  -706.264190438     A.U. after   12 cycles
 SCF Done:  E(RB3LYP) =  -706.264238384     A.U. after   12 cycles
 SCF Done:  E(RB3LYP) =  -706.264251507     A.U. after   12 cycles
 SCF Done:  E(RB3LYP) =  -706.264252682     A.U. after   10 cycles
 SCF Done:  E(RB3LYP) =  -706.264252624     A.U. after   10 cycles
 SCF Done:  E(RB3LYP) =  -706.264252546     A.U. after   10 cycles
 Optimization completed.
    -- Stationary point found.

                         Standard orientation:
 ---------------------------------------------------------------------
 Center     Atomic      Atomic             Coordinates (Angstroms)
 Number     Number       Type             X           Y           Z
 ---------------------------------------------------------------------
      1          6           0        0.578181    0.215969   -0.023532
      2          8           0       -2.927942   -0.182374    0.381803
      3          6           0        1.178117    1.626001    0.068444
      4          1           0        1.889272    1.797758   -0.754524
      5          1           0        0.397612    2.390671    0.017027
      6          1           0        1.731868    1.758038    1.010151
      7         17           0        1.556445   -0.919239    0.042039
      8          6           0       -0.708018    0.081155   -0.155879
      9          7           0       -1.906352   -0.057023   -0.482278
 ---------------------------------------------------------------------

 The electronic state is 1-A.
 Alpha  occ. eigenvalues -- -101.53080 -19.05696 -14.34628 -10.19850 -10.16459
 Alpha  occ. eigenvalues --  -10.16424  -9.45251  -7.21561  -7.20652  -7.20615
 Alpha  occ. eigenvalues --   -0.96867  -0.92266  -0.76585  -0.70686  -0.62866
 Alpha  occ. eigenvalues --   -0.49263  -0.42660  -0.41797  -0.40740  -0.37206
 Alpha  occ. eigenvalues --   -0.35503  -0.33433  -0.33232  -0.28329  -0.19429
 Alpha  occ. eigenvalues --   -0.16398  -0.13890
 Alpha virt. eigenvalues --    0.02073   0.03716   0.03926   0.05765   0.07132
 Alpha virt. eigenvalues --    0.08058   0.08176   0.08609   0.09843   0.10175
 Alpha virt. eigenvalues --    0.11219   0.12310   0.14362   0.14784   0.15966

 Mulliken charges:
               1
     1  C    0.227342
     2  O   -0.493284
     3  C   -0.863394
     4  H    0.211462
     5  H    0.220796
     6  H    0.211811
     7  Cl   0.105110
     8  C   -0.031753
     9  N   -0.588091
 Sum of Mulliken charges =  -1.00000

 Dipole moment (field-independent basis, Debye):
    X=             10.4614    Y=              1.7133    Z=             -0.2015  Tot=             10.6027
 Quadrupole moment (field-independent basis, Debye-Ang):
   XX=            -79.1577   YY=            -44.7380   ZZ=            -47.8204
   XY=             -0.6626   XZ=              1.6686   YZ=              0.1903

 Normal termination of Gaussian 16 at Tue Jan  7 11:08:51 2020.
