 Gaussian 16, Revision A.03,
 Gaussian 16:  AS64L-G16RevA.03 25-Dec-2016

 ----------------------------------------------------------------------
 #p opt=modredundant b3lyp/6-31+g(d) scrf=(smd, solvent=tetrahydrofuran
 )
 ----------------------------------------------------------------------

 -----
 title
 -----
 Symbolic Z-matrix:
 Charge = -1 Multiplicity = 1

 SCF Done:  E(RB3LYP) =  -706.357636683     A.U. after   14 cycles
 SCF Done:  E(RB3LYP) =  -706.392556853     A.U. after   12 cycles
 SCF Done:  E(RB3LYP) =  -706.401171875     A.U. after   12 cycles
 SCF Done:  E(RB3LYP) =  -706.404390309     A.U. after   12 cycles
 SCF Done:  E(RB3LYP) =  -706.404702353     A.U. after   11 cycles
 SCF Done:  E(RB3LYP) =  -706.404730868     A.U. after   10 cycles
 SCF Done:  E(RB3LYP) =  -706.404739758     A.U. after   10 cycles
 SCF Done:  E(RB3LYP) =  -706.404743560     A.U. after    9 cycles
 SCF Done:  E(RB3LYP) =  -706.404745230     A.U. after    9 cycles
 SCF Done:  E(RB3LYP) =  -706.404745456     A.U. after    8 cycles
 SCF Done:  E(RB3LYP) =  -706.404767344     A.U. after    9 cycles
 SCF Done:  E(RB3LYP) =  -706.404767777     A.U. after    8 cycles
 SCF Done:  E(RB3LYP) =  -706.404767577     A.U. after    8 cycles
 SCF Done:  E(RB3LYP) =  -706.404766821     A.U. after    8 cycles
 SCF Done:  E(RB3LYP) =  -706.404765784     A.U. after    8 cycles
 SCF Done:  E(RB3LYP) =  -706.404764183     A.U. after    8 cycles
 SCF Done:  E(RB3LYP) =  -706.404763431     A.U. after    8 cycles
 SCF Done:  E(RB3LYP) =  -706.404761915     A.U. after    8 cycles
 SCF Done:  E(RB3LYP) =  -706.404761986     A.U. after    9 cycles
 SCF Done:  E(RB3LYP) =  -706.404762021     A.U. after    8 cycles
 Optimization completed.
    -- Stationary point found.

                         Standard orientation:
 ---------------------------------------------------------------------
 Center     Atomic      Atomic             Coordinates (Angstroms)
 Number     Number       Type             X           Y           Z
 ---------------------------------------------------------------------
      1          6           0       -0.380389    0.788798    0.259875
      2          8           0       -0.295159    1.059962    1.383358
      3          6           0       -0.240515    1.375604   -1.085896
      4          1           0        0.008028    0.613576   -1.820195
      5          1           0       -1.209219    1.828134   -1.334757
      6          1           0        0.538578    2.143176   -1.035740
      7         17           0       -1.696268   -1.065824   -0.084859
      8          6           0        2.158544   -0.349338   -0.053922
      9          7           0        3.233514   -0.833708   -0.021988
 ---------------------------------------------------------------------

 The electronic state is 1-A.
 Alpha  occ. eigenvalues -- -101.47804 -19.22850 -14.26370 -10.36095 -10.21387
 Alpha  occ. eigenvalues --  -10.12892  -9.39214  -7.15325  -7.14821  -7.14792
 Alpha  occ. eigenvalues --   -1.13427  -0.81974  -0.78166  -0.73047  -0.55627
 Alpha  occ. eigenvalues --   -0.48533  -0.48057  -0.47673  -0.40481  -0.40257
 Alpha  occ. eigenvalues --   -0.35483  -0.27690  -0.27060  -0.26936  -0.26373
 Alpha  occ. eigenvalues --   -0.26174  -0.23725
 Alpha virt. eigenvalues --   -0.05161  -0.02653   0.02775   0.04759   0.05188
 Alpha virt. eigenvalues --    0.05501   0.07980   0.08201   0.08849   0.09657
 Alpha virt. eigenvalues --    0.10008   0.11218   0.11454   0.12753   0.13347

 Mulliken charges:
               1
     1  C    0.361835
     2  O   -0.174830
     3  C   -0.644125
     4  H    0.305176
     5  H    0.285872
     6  H    0.283889
     7  Cl  -0.484063
     8  C   -0.274584
     9  N   -0.659171
 Sum of Mulliken charges =  -1.00000

 Dipole moment (field-independent basis, Debye):
    X=             -8.2956    Y=              7.9080    Z=             -2.4022  Tot=             11.7100
 Quadrupole moment (field-independent basis, Debye-Ang):
   XX=            -90.2203   YY=            -47.7991   ZZ=            -45.9350
   XY=              3.6323   XZ=              0.7791   YZ=             -3.9497

 Normal termination of Gaussian 16 at Wed Jan  8 01:16:25 2020.
