 Gaussian 16, Revision A.03,
 Gaussian 16:  AS64L-G16RevA.03 25-Dec-2016

 ----------------------------------------------------------------------
 #p opt=modredundant b3lyp/6-31+g(d) scrf=(smd, solvent=tetrahydrofuran
 )
 ----------------------------------------------------------------------

 -----
 title
 -----
 Symbolic Z-matrix:
 Charge = -1 Multiplicity = 1

 SCF Done:  E(RB3LYP) =  -706.408527192     A.U. after   14 cycles
 SCF Done:  E(RB3LYP) =  -706.418805752     A.U. after   11 cycles
 SCF Done:  E(RB3LYP) =  -706.420086631     A.U. after   12 cycles
 SCF Done:  E(RB3LYP) =  -706.420172188     A.U. after   11 cycles
 SCF Done:  E(RB3LYP) =  -706.420178960     A.U. after   10 cycles
 SCF Done:  E(RB3LYP) =  -706.420181461     A.U. after   10 cycles
 SCF Done:  E(RB3LYP) =  -706.420181783     A.U. after    9 cycles
 SCF Done:  E(RB3LYP) =  -706.420182174     A.U. after    8 cycles
 Optimization completed.
    -- Stationary point found.

                         Standard orientation:
 ---------------------------------------------------------------------
 Center     Atomic      Atomic             Coordinates (Angstroms)
 Number     Number       Type             X           Y           Z
 ---------------------------------------------------------------------
      1          6           0       -0.087068    0.546495    0.238357
      2          8           0       -0.165255    0.974696    1.387902
      3          6           0       -0.292317    1.431508   -0.982791
      4          1           0       -0.163082    0.883037   -1.918725
      5          1           0       -1.302040    1.855353   -0.942804
      6          1           0        0.436342    2.250191   -0.936391
      7         17           0       -1.288545   -1.018307   -0.090045
      8          6           0        1.468645   -0.305011   -0.069366
      9          7           0        2.531503   -0.787554   -0.127391
 ---------------------------------------------------------------------

 The electronic state is 1-A.
 Alpha  occ. eigenvalues -- -101.47413 -19.09770 -14.30759 -10.30068 -10.19223
 Alpha  occ. eigenvalues --  -10.16782  -9.39074  -7.15222  -7.14621  -7.14607
 Alpha  occ. eigenvalues --   -1.00551  -0.86886  -0.76505  -0.70776  -0.54654
 Alpha  occ. eigenvalues --   -0.45719  -0.42651  -0.40554  -0.37829  -0.35694
 Alpha  occ. eigenvalues --   -0.34767  -0.31383  -0.30847  -0.26286  -0.26001
 Alpha  occ. eigenvalues --   -0.23791  -0.22912
 Alpha virt. eigenvalues --    0.01374   0.02602   0.04116   0.05392   0.05614
 Alpha virt. eigenvalues --    0.07093   0.07302   0.08672   0.09724   0.10237
 Alpha virt. eigenvalues --    0.10453   0.10487   0.12765   0.13490   0.13897

 Mulliken charges:
               1
     1  C    0.160629
     2  O   -0.430784
     3  C   -0.597005
     4  H    0.232540
     5  H    0.235337
     6  H    0.232912
     7  Cl  -0.330902
     8  C    0.152286
     9  N   -0.655013
 Sum of Mulliken charges =  -1.00000

 Dipole moment (field-independent basis, Debye):
    X=             -2.5526    Y=              3.2508    Z=             -3.2027  Tot=              5.2288
 Quadrupole moment (field-independent basis, Debye-Ang):
   XX=            -65.6513   YY=            -50.5201   ZZ=            -50.4569
   XY=              2.5193   XZ=              1.4905   YZ=             -4.8918

 Normal termination of Gaussian 16 at Wed Jan  8 00:19:39 2020.
