 Gaussian 16, Revision A.03,
 Gaussian 16:  AS64L-G16RevA.03 25-Dec-2016

 ----------------------------------------------------------------------
 #p opt=modredundant b3lyp/6-31+g(d) scrf=(smd, solvent=tetrahydrofuran
 )
 ----------------------------------------------------------------------

 -----
 title
 -----
 Symbolic Z-matrix:
 Charge = -1 Multiplicity = 1

 SCF Done:  E(RB3LYP) =  -706.381466159     A.U. after   14 cycles
 SCF Done:  E(RB3LYP) =  -706.397006148     A.U. after   12 cycles
 SCF Done:  E(RB3LYP) =  -706.398788046     A.U. after   12 cycles
 SCF Done:  E(RB3LYP) =  -706.398906204     A.U. after   11 cycles
 SCF Done:  E(RB3LYP) =  -706.398928410     A.U. after   10 cycles
 SCF Done:  E(RB3LYP) =  -706.398936507     A.U. after    9 cycles
 SCF Done:  E(RB3LYP) =  -706.398942625     A.U. after   10 cycles
 SCF Done:  E(RB3LYP) =  -706.398948752     A.U. after   10 cycles
 SCF Done:  E(RB3LYP) =  -706.398951410     A.U. after   10 cycles
 SCF Done:  E(RB3LYP) =  -706.398951673     A.U. after   10 cycles
 SCF Done:  E(RB3LYP) =  -706.398951155     A.U. after   11 cycles
 SCF Done:  E(RB3LYP) =  -706.398951531     A.U. after   10 cycles
 SCF Done:  E(RB3LYP) =  -706.398950386     A.U. after   10 cycles
 SCF Done:  E(RB3LYP) =  -706.398952243     A.U. after   10 cycles
 SCF Done:  E(RB3LYP) =  -706.398929689     A.U. after   11 cycles
 SCF Done:  E(RB3LYP) =  -706.398951904     A.U. after   11 cycles
 SCF Done:  E(RB3LYP) =  -706.398952281     A.U. after    9 cycles
 SCF Done:  E(RB3LYP) =  -706.398952677     A.U. after    9 cycles
 SCF Done:  E(RB3LYP) =  -706.398952976     A.U. after   10 cycles
 SCF Done:  E(RB3LYP) =  -706.398953089     A.U. after    9 cycles
 Optimization completed.
    -- Stationary point found.

                         Standard orientation:
 ---------------------------------------------------------------------
 Center     Atomic      Atomic             Coordinates (Angstroms)
 Number     Number       Type             X           Y           Z
 ---------------------------------------------------------------------
      1          6           0       -0.446771    0.421938    0.250476
      2          8           0       -0.400460    0.730353    1.428418
      3          6           0       -0.451080    1.447904   -0.867756
      4          1           0       -0.185503    1.013424   -1.832562
      5          1           0       -1.469132    1.860797   -0.928993
      6          1           0        0.242252    2.254184   -0.617783
      7         17           0       -1.198809   -1.040019   -0.182100
      8          6           0        1.720986   -0.217350   -0.176303
      9          7           0        2.865286   -0.457980   -0.027257
 ---------------------------------------------------------------------

 The electronic state is 1-A.
 Alpha  occ. eigenvalues -- -101.52594 -19.12122 -14.26630 -10.30568 -10.17098
 Alpha  occ. eigenvalues --  -10.13202  -9.44465  -7.20760  -7.19935  -7.19859
 Alpha  occ. eigenvalues --   -1.03278  -0.84397  -0.82312  -0.71528  -0.53181
 Alpha  occ. eigenvalues --   -0.45151  -0.44572  -0.42780  -0.37795  -0.36442
 Alpha  occ. eigenvalues --   -0.34415  -0.29960  -0.29715  -0.27130  -0.26834
 Alpha  occ. eigenvalues --   -0.24978  -0.23060
 Alpha virt. eigenvalues --   -0.00284   0.02971   0.04897   0.05619   0.06150
 Alpha virt. eigenvalues --    0.06816   0.08580   0.09058   0.09295   0.09700
 Alpha virt. eigenvalues --    0.10789   0.11064   0.12106   0.13678   0.13775

 Mulliken charges:
               1
     1  C   -0.279001
     2  O   -0.338540
     3  C   -0.423294
     4  H    0.242040
     5  H    0.232842
     6  H    0.244522
     7  Cl   0.143590
     8  C   -0.138965
     9  N   -0.683192
 Sum of Mulliken charges =  -1.00000

 Dipole moment (field-independent basis, Debye):
    X=             -8.5787    Y=              2.2932    Z=             -2.8678  Tot=              9.3315
 Quadrupole moment (field-independent basis, Debye-Ang):
   XX=            -74.2580   YY=            -46.1471   ZZ=            -50.1804
   XY=              3.5231   XZ=              1.8861   YZ=             -3.2458

 Normal termination of Gaussian 16 at Tue Jan  7 23:41:44 2020.
