 Gaussian 16, Revision A.03,
 Gaussian 16:  AS64L-G16RevA.03 25-Dec-2016

 ----------------------------------------------------------------------
 #p opt=modredundant b3lyp/6-31+g(d) scrf=(smd, solvent=tetrahydrofuran
 )
 ----------------------------------------------------------------------

 -----
 title
 -----
 Symbolic Z-matrix:
 Charge = -1 Multiplicity = 1

 SCF Done:  E(RB3LYP) =  -706.404807801     A.U. after   14 cycles
 SCF Done:  E(RB3LYP) =  -706.422193027     A.U. after   12 cycles
 SCF Done:  E(RB3LYP) =  -706.425568280     A.U. after   12 cycles
 SCF Done:  E(RB3LYP) =  -706.425909969     A.U. after   12 cycles
 SCF Done:  E(RB3LYP) =  -706.425951985     A.U. after   10 cycles
 SCF Done:  E(RB3LYP) =  -706.425960892     A.U. after   10 cycles
 SCF Done:  E(RB3LYP) =  -706.425962367     A.U. after    9 cycles
 SCF Done:  E(RB3LYP) =  -706.425962926     A.U. after    9 cycles
 Optimization completed.
    -- Stationary point found.

                         Standard orientation:
 ---------------------------------------------------------------------
 Center     Atomic      Atomic             Coordinates (Angstroms)
 Number     Number       Type             X           Y           Z
 ---------------------------------------------------------------------
      1          6           0        0.025465    0.652365    0.235474
      2          8           0       -0.049101    1.085486    1.365679
      3          6           0       -0.213934    1.443604   -1.028930
      4          1           0       -0.149328    0.819590   -1.921182
      5          1           0       -1.201707    1.911989   -0.973475
      6          1           0        0.550822    2.230566   -1.077106
      7         17           0       -1.396918   -1.001267   -0.051450
      8          6           0        1.471059   -0.379356   -0.057460
      9          7           0        2.463585   -0.989166   -0.139074
 ---------------------------------------------------------------------

 The electronic state is 1-A.
 Alpha  occ. eigenvalues -- -101.45383 -19.12303 -14.31293 -10.30992 -10.19995
 Alpha  occ. eigenvalues --  -10.17488  -9.36935  -7.12977  -7.12551  -7.12539
 Alpha  occ. eigenvalues --   -1.02981  -0.87412  -0.74479  -0.70644  -0.55219
 Alpha  occ. eigenvalues --   -0.46457  -0.43002  -0.41945  -0.38464  -0.35640
 Alpha  occ. eigenvalues --   -0.35397  -0.31626  -0.31377  -0.25573  -0.24760
 Alpha  occ. eigenvalues --   -0.24039  -0.23557
 Alpha virt. eigenvalues --   -0.00319   0.02426   0.03784   0.04988   0.05486
 Alpha virt. eigenvalues --    0.07019   0.07096   0.08534   0.09678   0.10144
 Alpha virt. eigenvalues --    0.10359   0.10586   0.12044   0.13338   0.13856

 Mulliken charges:
               1
     1  C    0.228299
     2  O   -0.373586
     3  C   -0.604796
     4  H    0.242818
     5  H    0.245058
     6  H    0.239911
     7  Cl  -0.517308
     8  C    0.175762
     9  N   -0.636157
 Sum of Mulliken charges =  -1.00000

 Dipole moment (field-independent basis, Debye):
    X=             -1.0950    Y=              4.7795    Z=             -2.9421  Tot=              5.7183
 Quadrupole moment (field-independent basis, Debye-Ang):
   XX=            -66.2944   YY=            -51.8766   ZZ=            -49.3819
   XY=              1.9750   XZ=              1.1177   YZ=             -5.0358

 Normal termination of Gaussian 16 at Wed Jan  8 00:49:28 2020.
