 Gaussian 16, Revision A.03,
 Gaussian 16:  AS64L-G16RevA.03 25-Dec-2016

 ----------------------------------------------------------------------
 #p opt=modredundant b3lyp/6-31+g(d) scrf=(smd, solvent=tetrahydrofuran
 )
 ----------------------------------------------------------------------

 -----
 title
 -----
 Symbolic Z-matrix:
 Charge = -1 Multiplicity = 1

 SCF Done:  E(RB3LYP) =  -706.387048856     A.U. after   14 cycles
 SCF Done:  E(RB3LYP) =  -706.413619050     A.U. after   13 cycles
 SCF Done:  E(RB3LYP) =  -706.421393847     A.U. after   12 cycles
 SCF Done:  E(RB3LYP) =  -706.422976552     A.U. after   12 cycles
 SCF Done:  E(RB3LYP) =  -706.423091916     A.U. after   11 cycles
 SCF Done:  E(RB3LYP) =  -706.423124117     A.U. after   10 cycles
 SCF Done:  E(RB3LYP) =  -706.423135748     A.U. after   10 cycles
 SCF Done:  E(RB3LYP) =  -706.423138290     A.U. after    9 cycles
 SCF Done:  E(RB3LYP) =  -706.423138574     A.U. after    9 cycles
 Optimization completed.
    -- Stationary point found.

                         Standard orientation:
 ---------------------------------------------------------------------
 Center     Atomic      Atomic             Coordinates (Angstroms)
 Number     Number       Type             X           Y           Z
 ---------------------------------------------------------------------
      1          6           0        0.185528    0.791068    0.232575
      2          8           0        0.116672    1.199629    1.346076
      3          6           0       -0.050461    1.460157   -1.082094
      4          1           0       -0.082472    0.740993   -1.898456
      5          1           0       -0.986911    2.023392   -1.032617
      6          1           0        0.784840    2.157552   -1.238672
      7         17           0       -1.612073   -0.927966   -0.019520
      8          6           0        1.524226   -0.528739   -0.043101
      9          7           0        2.400093   -1.296923   -0.130186
 ---------------------------------------------------------------------

 The electronic state is 1-A.
 Alpha  occ. eigenvalues -- -101.43328 -19.16597 -14.31338 -10.33009 -10.20010
 Alpha  occ. eigenvalues --  -10.18898  -9.34757  -7.10682  -7.10451  -7.10443
 Alpha  occ. eigenvalues --   -1.07255  -0.87340  -0.75032  -0.68899  -0.55041
 Alpha  occ. eigenvalues --   -0.48033  -0.44656  -0.44326  -0.39362  -0.37086
 Alpha  occ. eigenvalues --   -0.36215  -0.31618  -0.31445  -0.27585  -0.23174
 Alpha  occ. eigenvalues --   -0.22717  -0.22691
 Alpha virt. eigenvalues --   -0.02357   0.01595   0.02962   0.04719   0.05260
 Alpha virt. eigenvalues --    0.06625   0.06856   0.07976   0.09170   0.09920
 Alpha virt. eigenvalues --    0.10334   0.10600   0.11033   0.13046   0.13688

 Mulliken charges:
               1
     1  C    0.356371
     2  O   -0.289445
     3  C   -0.629908
     4  H    0.264015
     5  H    0.260098
     6  H    0.257856
     7  Cl  -0.719847
     8  C    0.118298
     9  N   -0.617439
 Sum of Mulliken charges =  -1.00000

 Dipole moment (field-independent basis, Debye):
    X=              0.8438    Y=              7.0720    Z=             -2.7108  Tot=              7.6206
 Quadrupole moment (field-independent basis, Debye-Ang):
   XX=            -69.7276   YY=            -52.8639   ZZ=            -47.8493
   XY=              2.0421   XZ=              0.6243   YZ=             -4.9871

 Normal termination of Gaussian 16 at Wed Jan  8 01:21:58 2020.
