 Gaussian 16, Revision A.03,
 Gaussian 16:  AS64L-G16RevA.03 25-Dec-2016

 ----------------------------------------------------------------------
 #p opt=modredundant b3lyp/6-31+g(d) scrf=(smd, solvent=tetrahydrofuran
 )
 ----------------------------------------------------------------------

 -----
 title
 -----
 Symbolic Z-matrix:
 Charge = -1 Multiplicity = 1

 SCF Done:  E(RB3LYP) =  -706.320820193     A.U. after   16 cycles
 SCF Done:  E(RB3LYP) =  -706.361627636     A.U. after   13 cycles
 SCF Done:  E(RB3LYP) =  -706.377913569     A.U. after   13 cycles
 SCF Done:  E(RB3LYP) =  -706.387455053     A.U. after   12 cycles
 SCF Done:  E(RB3LYP) =  -706.390034693     A.U. after   11 cycles
 SCF Done:  E(RB3LYP) =  -706.390582651     A.U. after   11 cycles
 SCF Done:  E(RB3LYP) =  -706.390918768     A.U. after   11 cycles
 SCF Done:  E(RB3LYP) =  -706.391101179     A.U. after   11 cycles
 SCF Done:  E(RB3LYP) =  -706.391164048     A.U. after   10 cycles
 SCF Done:  E(RB3LYP) =  -706.391201810     A.U. after   11 cycles
 SCF Done:  E(RB3LYP) =  -706.391385480     A.U. after   11 cycles
 SCF Done:  E(RB3LYP) =  -706.391431736     A.U. after   10 cycles
 SCF Done:  E(RB3LYP) =  -706.391440183     A.U. after    9 cycles
 SCF Done:  E(RB3LYP) =  -706.391452652     A.U. after    9 cycles
 SCF Done:  E(RB3LYP) =  -706.391456998     A.U. after    9 cycles
 SCF Done:  E(RB3LYP) =  -706.391464061     A.U. after   10 cycles
 SCF Done:  E(RB3LYP) =  -706.391465223     A.U. after   10 cycles
 SCF Done:  E(RB3LYP) =  -706.391465099     A.U. after    9 cycles
 Optimization completed.
    -- Stationary point found.

                         Standard orientation:
 ---------------------------------------------------------------------
 Center     Atomic      Atomic             Coordinates (Angstroms)
 Number     Number       Type             X           Y           Z
 ---------------------------------------------------------------------
      1          6           0        0.255354    0.898845    0.196729
      2          8           0        0.150831    1.113004    1.308547
      3          6           0        0.125795    1.027396   -1.235201
      4          1           0        0.070112    0.035077   -1.685187
      5          1           0       -0.792405    1.596447   -1.425077
      6          1           0        1.016431    1.556177   -1.595751
      7         17           0       -2.489455   -0.736317    0.017095
      8          6           0        2.423223   -0.527637    0.037065
      9          7           0        3.427673   -1.137996   -0.006362
 ---------------------------------------------------------------------

 The electronic state is 1-A.
 Alpha  occ. eigenvalues -- -101.41889 -19.28898 -14.28231 -10.40197 -10.24170
 Alpha  occ. eigenvalues --  -10.15286  -9.33218  -7.09026  -7.08988  -7.08981
 Alpha  occ. eigenvalues --   -1.19460  -0.83894  -0.81720  -0.67111  -0.59177
 Alpha  occ. eigenvalues --   -0.52421  -0.52035  -0.51676  -0.43732  -0.43471
 Alpha  occ. eigenvalues --   -0.37116  -0.28660  -0.28641  -0.26279  -0.21926
 Alpha  occ. eigenvalues --   -0.21671  -0.21631
 Alpha virt. eigenvalues --   -0.07124  -0.05944   0.01875   0.04512   0.04555
 Alpha virt. eigenvalues --    0.05032   0.06894   0.07270   0.08445   0.09600
 Alpha virt. eigenvalues --    0.09900   0.10569   0.10801   0.12371   0.13066

 Mulliken charges:
               1
     1  C    0.755072
     2  O   -0.175888
     3  C   -0.723181
     4  H    0.349647
     5  H    0.316564
     6  H    0.320184
     7  Cl  -0.931194
     8  C   -0.267381
     9  N   -0.643824
 Sum of Mulliken charges =  -1.00000

 Dipole moment (field-independent basis, Debye):
    X=              0.3147    Y=             10.1651    Z=             -3.2614  Tot=             10.6801
 Quadrupole moment (field-independent basis, Debye-Ang):
   XX=           -112.8010   YY=            -49.2384   ZZ=            -43.5811
   XY=              4.2750   XZ=             -0.1890   YZ=             -3.2556

 Normal termination of Gaussian 16 at Wed Jan  8 03:11:18 2020.
