 Gaussian 16, Revision A.03,
 Gaussian 16:  AS64L-G16RevA.03 25-Dec-2016

 ----------------------------------------------------------------------
 #p opt=modredundant b3lyp/6-31+g(d) scrf=(smd, solvent=tetrahydrofuran
 )
 ----------------------------------------------------------------------

 -----
 title
 -----
 Symbolic Z-matrix:
 Charge = -1 Multiplicity = 1

 SCF Done:  E(RB3LYP) =  -706.359706382     A.U. after   14 cycles
 SCF Done:  E(RB3LYP) =  -706.392785264     A.U. after   13 cycles
 SCF Done:  E(RB3LYP) =  -706.399838071     A.U. after   12 cycles
 SCF Done:  E(RB3LYP) =  -706.401986603     A.U. after   12 cycles
 SCF Done:  E(RB3LYP) =  -706.402107354     A.U. after   11 cycles
 SCF Done:  E(RB3LYP) =  -706.402121347     A.U. after   10 cycles
 SCF Done:  E(RB3LYP) =  -706.402158282     A.U. after   11 cycles
 SCF Done:  E(RB3LYP) =  -706.402093626     A.U. after   11 cycles
 SCF Done:  E(RB3LYP) =  -706.402211185     A.U. after   10 cycles
 SCF Done:  E(RB3LYP) =  -706.402246466     A.U. after   10 cycles
 SCF Done:  E(RB3LYP) =  -706.402274782     A.U. after   10 cycles
 SCF Done:  E(RB3LYP) =  -706.402280242     A.U. after    9 cycles
 SCF Done:  E(RB3LYP) =  -706.402280904     A.U. after    8 cycles
 SCF Done:  E(RB3LYP) =  -706.402280963     A.U. after    9 cycles
 Optimization completed.
    -- Stationary point found.

                         Standard orientation:
 ---------------------------------------------------------------------
 Center     Atomic      Atomic             Coordinates (Angstroms)
 Number     Number       Type             X           Y           Z
 ---------------------------------------------------------------------
      1          6           0       -0.209637    0.827232    0.250880
      2          8           0       -0.221020    1.148743    1.365613
      3          6           0       -0.180678    1.388775   -1.115255
      4          1           0       -0.001744    0.614977   -1.856148
      5          1           0       -1.156199    1.861140   -1.286468
      6          1           0        0.615132    2.142175   -1.139401
      7         17           0       -1.650430   -1.066230   -0.063630
      8          6           0        1.963895   -0.379930   -0.010877
      9          7           0        2.989542   -0.956969   -0.044237
 ---------------------------------------------------------------------

 The electronic state is 1-A.
 Alpha  occ. eigenvalues -- -101.46050 -19.22136 -14.27342 -10.35819 -10.21186
 Alpha  occ. eigenvalues --  -10.14241  -9.37449  -7.13495  -7.13085  -7.13071
 Alpha  occ. eigenvalues --   -1.12767  -0.83015  -0.77586  -0.71375  -0.55216
 Alpha  occ. eigenvalues --   -0.48078  -0.47769  -0.47230  -0.40175  -0.39864
 Alpha  occ. eigenvalues --   -0.36094  -0.27908  -0.27818  -0.26217  -0.25411
 Alpha  occ. eigenvalues --   -0.24806  -0.24252
 Alpha virt. eigenvalues --   -0.05317  -0.01544   0.02782   0.04918   0.05366
 Alpha virt. eigenvalues --    0.05559   0.07732   0.08255   0.08886   0.09802
 Alpha virt. eigenvalues --    0.10162   0.10898   0.11180   0.12751   0.13454

 Mulliken charges:
               1
     1  C    0.303388
     2  O   -0.164387
     3  C   -0.573218
     4  H    0.299100
     5  H    0.281109
     6  H    0.281644
     7  Cl  -0.575759
     8  C   -0.194377
     9  N   -0.657500
 Sum of Mulliken charges =  -1.00000

 Dipole moment (field-independent basis, Debye):
    X=             -5.4270    Y=              8.4020    Z=             -2.5016  Tot=             10.3104
 Quadrupole moment (field-independent basis, Debye-Ang):
   XX=            -83.7862   YY=            -49.3131   ZZ=            -45.9483
   XY=              3.3061   XZ=              0.7579   YZ=             -4.2536

 Normal termination of Gaussian 16 at Wed Jan  8 01:18:16 2020.
