 Gaussian 16, Revision A.03,
 Gaussian 16:  AS64L-G16RevA.03 25-Dec-2016

 ----------------------------------------------------------------------
 #p opt=modredundant b3lyp/6-31+g(d) scrf=(smd, solvent=tetrahydrofuran
 )
 ----------------------------------------------------------------------

 -----
 title
 -----
 Symbolic Z-matrix:
 Charge = -1 Multiplicity = 1

 SCF Done:  E(RB3LYP) =  -706.377714576     A.U. after   14 cycles
 SCF Done:  E(RB3LYP) =  -706.400985666     A.U. after   12 cycles
 SCF Done:  E(RB3LYP) =  -706.405396003     A.U. after   12 cycles
 SCF Done:  E(RB3LYP) =  -706.405729470     A.U. after   11 cycles
 SCF Done:  E(RB3LYP) =  -706.405794161     A.U. after   10 cycles
 SCF Done:  E(RB3LYP) =  -706.405800122     A.U. after   10 cycles
 SCF Done:  E(RB3LYP) =  -706.405810279     A.U. after   11 cycles
 SCF Done:  E(RB3LYP) =  -706.405822124     A.U. after   11 cycles
 SCF Done:  E(RB3LYP) =  -706.405835411     A.U. after   11 cycles
 SCF Done:  E(RB3LYP) =  -706.378678773     A.U. after   14 cycles
 SCF Done:  E(RB3LYP) =  -706.405918254     A.U. after   11 cycles
 SCF Done:  E(RB3LYP) =  -706.405939473     A.U. after   11 cycles
 SCF Done:  E(RB3LYP) =  -706.405969642     A.U. after   11 cycles
 SCF Done:  E(RB3LYP) =  -706.405976896     A.U. after   10 cycles
 SCF Done:  E(RB3LYP) =  -706.405975891     A.U. after    9 cycles
 SCF Done:  E(RB3LYP) =  -706.405974221     A.U. after    9 cycles
 SCF Done:  E(RB3LYP) =  -706.405976780     A.U. after   10 cycles
 SCF Done:  E(RB3LYP) =  -706.405970404     A.U. after   10 cycles
 SCF Done:  E(RB3LYP) =  -706.405968093     A.U. after    9 cycles
 SCF Done:  E(RB3LYP) =  -706.405965974     A.U. after    9 cycles
 Optimization completed.
    -- Stationary point found.

                         Standard orientation:
 ---------------------------------------------------------------------
 Center     Atomic      Atomic             Coordinates (Angstroms)
 Number     Number       Type             X           Y           Z
 ---------------------------------------------------------------------
      1          6           0       -0.559832    0.435140    0.265898
      2          8           0       -0.395910    0.689818    1.436012
      3          6           0       -0.539811    1.461523   -0.841021
      4          1           0       -0.238249    1.031579   -1.796447
      5          1           0       -1.562125    1.856280   -0.937710
      6          1           0        0.132282    2.276610   -0.565189
      7         17           0       -1.244676   -1.054297   -0.184178
      8          6           0        1.898736   -0.214542   -0.275723
      9          7           0        3.028615   -0.407528    0.006765
 ---------------------------------------------------------------------

 The electronic state is 1-A.
 Alpha  occ. eigenvalues -- -101.53587 -19.14187 -14.25834 -10.31333 -10.17698
 Alpha  occ. eigenvalues --  -10.12184  -9.45434  -7.21730  -7.20921  -7.20815
 Alpha  occ. eigenvalues --   -1.05214  -0.85352  -0.81441  -0.72392  -0.53875
 Alpha  occ. eigenvalues --   -0.46193  -0.44649  -0.44045  -0.38515  -0.36615
 Alpha  occ. eigenvalues --   -0.34701  -0.30761  -0.30510  -0.26451  -0.26370
 Alpha  occ. eigenvalues --   -0.26293  -0.22857
 Alpha virt. eigenvalues --   -0.01204   0.02779   0.04735   0.05319   0.05766
 Alpha virt. eigenvalues --    0.06369   0.08498   0.08932   0.09285   0.09532
 Alpha virt. eigenvalues --    0.11126   0.11248   0.11803   0.13472   0.13630

 Mulliken charges:
               1
     1  C   -0.378712
     2  O   -0.296838
     3  C   -0.403385
     4  H    0.253773
     5  H    0.243662
     6  H    0.251525
     7  Cl   0.211361
     8  C   -0.226110
     9  N   -0.655276
 Sum of Mulliken charges =  -1.00000

 Dipole moment (field-independent basis, Debye):
    X=            -10.7234    Y=              2.6026    Z=             -2.4732  Tot=             11.3085
 Quadrupole moment (field-independent basis, Debye-Ang):
   XX=            -78.8159   YY=            -45.2143   ZZ=            -49.8846
   XY=              3.1316   XZ=              1.8000   YZ=             -2.9259

 Normal termination of Gaussian 16 at Tue Jan  7 23:43:25 2020.
