 Gaussian 16, Revision A.03,
 Gaussian 16:  AS64L-G16RevA.03 25-Dec-2016

 ----------------------------------------------------------------------
 #p opt=modredundant b3lyp/6-31+g(d) scrf=(smd, solvent=tetrahydrofuran
 )
 ----------------------------------------------------------------------

 -----
 title
 -----
 Symbolic Z-matrix:
 Charge = -1 Multiplicity = 1

 SCF Done:  E(RB3LYP) =  -706.335756268     A.U. after   14 cycles
 SCF Done:  E(RB3LYP) =  -706.374245774     A.U. after   13 cycles
 SCF Done:  E(RB3LYP) =  -706.389191466     A.U. after   13 cycles
 SCF Done:  E(RB3LYP) =  -706.397269634     A.U. after   12 cycles
 SCF Done:  E(RB3LYP) =  -706.399516902     A.U. after   11 cycles
 SCF Done:  E(RB3LYP) =  -706.400079068     A.U. after   11 cycles
 SCF Done:  E(RB3LYP) =  -706.400173478     A.U. after   11 cycles
 SCF Done:  E(RB3LYP) =  -706.400242855     A.U. after   11 cycles
 SCF Done:  E(RB3LYP) =  -706.400268684     A.U. after   10 cycles
 SCF Done:  E(RB3LYP) =  -706.400256311     A.U. after   10 cycles
 SCF Done:  E(RB3LYP) =  -706.400313337     A.U. after   10 cycles
 SCF Done:  E(RB3LYP) =  -706.400323723     A.U. after   11 cycles
 SCF Done:  E(RB3LYP) =  -706.400365660     A.U. after   11 cycles
 SCF Done:  E(RB3LYP) =  -706.400386944     A.U. after   10 cycles
 SCF Done:  E(RB3LYP) =  -706.400399013     A.U. after   10 cycles
 SCF Done:  E(RB3LYP) =  -706.400403607     A.U. after   10 cycles
 SCF Done:  E(RB3LYP) =  -706.400403911     A.U. after    9 cycles
 SCF Done:  E(RB3LYP) =  -706.400405030     A.U. after    9 cycles
 SCF Done:  E(RB3LYP) =  -706.400406317     A.U. after    9 cycles
 SCF Done:  E(RB3LYP) =  -706.400406674     A.U. after    8 cycles
 Optimization completed.
    -- Stationary point found.

                         Standard orientation:
 ---------------------------------------------------------------------
 Center     Atomic      Atomic             Coordinates (Angstroms)
 Number     Number       Type             X           Y           Z
 ---------------------------------------------------------------------
      1          6           0        0.401644    0.935794    0.220014
      2          8           0        0.261429    1.213465    1.326283
      3          6           0        0.172194    1.250076   -1.186560
      4          1           0       -0.025710    0.333436   -1.741255
      5          1           0       -0.677940    1.938523   -1.243249
      6          1           0        1.090102    1.719007   -1.563016
      7         17           0       -2.293809   -0.775412    0.004836
      8          6           0        2.067736   -0.635830    0.009934
      9          7           0        2.952489   -1.402416   -0.057897
 ---------------------------------------------------------------------

 The electronic state is 1-A.
 Alpha  occ. eigenvalues -- -101.41528 -19.25653 -14.29903 -10.38112 -10.22626
 Alpha  occ. eigenvalues --  -10.17657  -9.32856  -7.08658  -7.08629  -7.08623
 Alpha  occ. eigenvalues --   -1.16223  -0.85640  -0.79612  -0.66748  -0.57374
 Alpha  occ. eigenvalues --   -0.50762  -0.50245  -0.49471  -0.42013  -0.41769
 Alpha  occ. eigenvalues --   -0.38075  -0.30163  -0.30123  -0.28211  -0.21509
 Alpha  occ. eigenvalues --   -0.21335  -0.21300
 Alpha virt. eigenvalues --   -0.05882  -0.04462   0.02209   0.04510   0.04566
 Alpha virt. eigenvalues --    0.05366   0.06673   0.07236   0.08612   0.09680
 Alpha virt. eigenvalues --    0.09892   0.10162   0.10674   0.12524   0.13248

 Mulliken charges:
               1
     1  C    0.649144
     2  O   -0.179670
     3  C   -0.717708
     4  H    0.327221
     5  H    0.294404
     6  H    0.303152
     7  Cl  -0.932537
     8  C   -0.122653
     9  N   -0.621354
 Sum of Mulliken charges =  -1.00000

 Dipole moment (field-independent basis, Debye):
    X=              2.9332    Y=             10.2240    Z=             -2.8966  Tot=             11.0238
 Quadrupole moment (field-independent basis, Debye-Ang):
   XX=            -94.9196   YY=            -51.1190   ZZ=            -44.7876
   XY=              4.1203   XZ=              0.0101   YZ=             -4.0752

 Normal termination of Gaussian 16 at Wed Jan  8 03:04:30 2020.
