 Gaussian 16, Revision A.03,
 Gaussian 16:  AS64L-G16RevA.03 25-Dec-2016

 ----------------------------------------------------------------------
 #p opt=modredundant b3lyp/6-31+g(d) scrf=(smd, solvent=tetrahydrofuran
 )
 ----------------------------------------------------------------------

 -----
 title
 -----
 Symbolic Z-matrix:
 Charge = -1 Multiplicity = 1

 SCF Done:  E(RB3LYP) =  -706.318487821     A.U. after   14 cycles
 SCF Done:  E(RB3LYP) =  -706.326474721     A.U. after   12 cycles
 SCF Done:  E(RB3LYP) =  -706.327954561     A.U. after   11 cycles
 SCF Done:  E(RB3LYP) =  -706.328082101     A.U. after   11 cycles
 SCF Done:  E(RB3LYP) =  -706.328138247     A.U. after   10 cycles
 SCF Done:  E(RB3LYP) =  -706.328147659     A.U. after   10 cycles
 SCF Done:  E(RB3LYP) =  -706.328147697     A.U. after    9 cycles
 SCF Done:  E(RB3LYP) =  -706.328148224     A.U. after    9 cycles
 Optimization completed.
    -- Stationary point found.

                         Standard orientation:
 ---------------------------------------------------------------------
 Center     Atomic      Atomic             Coordinates (Angstroms)
 Number     Number       Type             X           Y           Z
 ---------------------------------------------------------------------
      1          6           0       -0.099332    0.184002    0.165206
      2          8           0       -0.104678    0.538083    1.498691
      3          6           0       -0.256786    1.494171   -0.727946
      4          1           0       -0.211916    1.284703   -1.806061
      5          1           0       -1.234810    1.922664   -0.480083
      6          1           0        0.524852    2.211204   -0.460693
      7         17           0       -1.145802   -0.822174   -0.212298
      8          6           0        1.202663   -0.264878   -0.086423
      9          7           0        2.308379   -0.603720   -0.248378
 ---------------------------------------------------------------------

 The electronic state is 1-A.
 Alpha  occ. eigenvalues -- -101.51681 -19.02379 -14.31055 -10.25140 -10.20429
 Alpha  occ. eigenvalues --  -10.15498  -9.44137  -7.20439  -7.19502  -7.19468
 Alpha  occ. eigenvalues --   -0.97077  -0.87585  -0.83793  -0.69657  -0.62643
 Alpha  occ. eigenvalues --   -0.49541  -0.43328  -0.40563  -0.37438  -0.35801
 Alpha  occ. eigenvalues --   -0.35483  -0.31575  -0.30715  -0.27915  -0.26235
 Alpha  occ. eigenvalues --   -0.17668  -0.17051
 Alpha virt. eigenvalues --    0.02656   0.04357   0.04772   0.05414   0.06353
 Alpha virt. eigenvalues --    0.07352   0.07833   0.09614   0.09813   0.10148
 Alpha virt. eigenvalues --    0.10255   0.11500   0.14103   0.14468   0.15224

 Mulliken charges:
               1
     1  C   -0.076469
     2  O   -0.727356
     3  C   -0.647818
     4  H    0.207217
     5  H    0.219589
     6  H    0.219255
     7  Cl   0.110259
     8  C    0.424311
     9  N   -0.728987
 Sum of Mulliken charges =  -1.00000

 Dipole moment (field-independent basis, Debye):
    X=             -3.5778    Y=              0.3335    Z=             -5.1022  Tot=              6.2405
 Quadrupole moment (field-independent basis, Debye-Ang):
   XX=            -59.5860   YY=            -47.4088   ZZ=            -55.4814
   XY=              3.4618   XZ=              2.1233   YZ=             -3.9323

 Normal termination of Gaussian 16 at Tue Jan  7 22:50:57 2020.
