 Gaussian 16, Revision A.03,
 Gaussian 16:  AS64L-G16RevA.03 25-Dec-2016

 ----------------------------------------------------------------------
 #p opt=modredundant b3lyp/6-31+g(d) scrf=(smd, solvent=tetrahydrofuran
 )
 ----------------------------------------------------------------------

 -----
 title
 -----
 Symbolic Z-matrix:
 Charge = -1 Multiplicity = 1

 SCF Done:  E(RB3LYP) =  -706.385209211     A.U. after   14 cycles
 SCF Done:  E(RB3LYP) =  -706.415070612     A.U. after   13 cycles
 SCF Done:  E(RB3LYP) =  -706.429485650     A.U. after   13 cycles
 SCF Done:  E(RB3LYP) =  -706.432817444     A.U. after   12 cycles
 SCF Done:  E(RB3LYP) =  -706.433146733     A.U. after   11 cycles
 SCF Done:  E(RB3LYP) =  -706.433188827     A.U. after   10 cycles
 SCF Done:  E(RB3LYP) =  -706.433222778     A.U. after   10 cycles
 SCF Done:  E(RB3LYP) =  -706.433234815     A.U. after    9 cycles
 SCF Done:  E(RB3LYP) =  -706.433241627     A.U. after    9 cycles
 Optimization completed.
    -- Stationary point found.

                         Standard orientation:
 ---------------------------------------------------------------------
 Center     Atomic      Atomic             Coordinates (Angstroms)
 Number     Number       Type             X           Y           Z
 ---------------------------------------------------------------------
      1          6           0        0.520531    0.770126    0.215272
      2          8           0        0.516026    1.177852    1.331902
      3          6           0        0.282473    1.458059   -1.084156
      4          1           0       -0.000696    0.752840   -1.864000
      5          1           0       -0.489428    2.221062   -0.955091
      6          1           0        1.229448    1.944366   -1.362623
      7         17           0       -1.894326   -0.632360    0.011563
      8          6           0        1.379134   -0.788929   -0.053339
      9          7           0        2.034742   -1.746643   -0.162391
 ---------------------------------------------------------------------

 The electronic state is 1-A.
 Alpha  occ. eigenvalues -- -101.41928 -19.17546 -14.32730 -10.33416 -10.21751
 Alpha  occ. eigenvalues --  -10.19065  -9.33297  -7.09139  -7.09043  -7.09036
 Alpha  occ. eigenvalues --   -1.08061  -0.88762  -0.75478  -0.67319  -0.57175
 Alpha  occ. eigenvalues --   -0.49157  -0.45333  -0.44768  -0.39949  -0.37495
 Alpha  occ. eigenvalues --   -0.36964  -0.32776  -0.32643  -0.28464  -0.21859
 Alpha  occ. eigenvalues --   -0.21626  -0.21603
 Alpha virt. eigenvalues --   -0.03439   0.01707   0.02871   0.03893   0.05280
 Alpha virt. eigenvalues --    0.06593   0.06701   0.08226   0.09338   0.09697
 Alpha virt. eigenvalues --    0.10411   0.10554   0.10820   0.13069   0.13577

 Mulliken charges:
               1
     1  C    0.434843
     2  O   -0.302681
     3  C   -0.684445
     4  H    0.269126
     5  H    0.262924
     6  H    0.264756
     7  Cl  -0.853200
     8  C    0.191522
     9  N   -0.582844
 Sum of Mulliken charges =  -1.00000

 Dipole moment (field-independent basis, Debye):
    X=              4.6170    Y=              7.0106    Z=             -2.8119  Tot=              8.8528
 Quadrupole moment (field-independent basis, Debye-Ang):
   XX=            -70.2227   YY=            -54.1237   ZZ=            -47.7302
   XY=              2.8559   XZ=             -0.4617   YZ=             -5.0792

 Normal termination of Gaussian 16 at Wed Jan  8 01:53:37 2020.
