 Gaussian 16, Revision A.03,
 Gaussian 16:  AS64L-G16RevA.03 25-Dec-2016

 ----------------------------------------------------------------------
 #p opt=modredundant b3lyp/6-31+g(d) scrf=(smd, solvent=tetrahydrofuran
 )
 ----------------------------------------------------------------------

 -----
 title
 -----
 Symbolic Z-matrix:
 Charge = -1 Multiplicity = 1

 SCF Done:  E(RB3LYP) =  -706.402841185     A.U. after   14 cycles
 SCF Done:  E(RB3LYP) =  -706.414600889     A.U. after   12 cycles
 SCF Done:  E(RB3LYP) =  -706.415953506     A.U. after   12 cycles
 SCF Done:  E(RB3LYP) =  -706.416080028     A.U. after   11 cycles
 SCF Done:  E(RB3LYP) =  -706.416098089     A.U. after   10 cycles
 SCF Done:  E(RB3LYP) =  -706.416104603     A.U. after   10 cycles
 SCF Done:  E(RB3LYP) =  -706.416106006     A.U. after    9 cycles
 SCF Done:  E(RB3LYP) =  -706.416106648     A.U. after    9 cycles
 SCF Done:  E(RB3LYP) =  -706.416106623     A.U. after    8 cycles
 Optimization completed.
    -- Stationary point found.

                         Standard orientation:
 ---------------------------------------------------------------------
 Center     Atomic      Atomic             Coordinates (Angstroms)
 Number     Number       Type             X           Y           Z
 ---------------------------------------------------------------------
      1          6           0       -0.143665    0.561742    0.243700
      2          8           0       -0.228648    0.975473    1.386733
      3          6           0       -0.313636    1.430085   -0.988792
      4          1           0       -0.146385    0.871916   -1.911773
      5          1           0       -1.329716    1.841864   -0.986960
      6          1           0        0.403963    2.256528   -0.924046
      7         17           0       -1.280355   -1.047778   -0.098907
      8          6           0        1.529760   -0.282892   -0.066528
      9          7           0        2.604659   -0.745067   -0.102849
 ---------------------------------------------------------------------

 The electronic state is 1-A.
 Alpha  occ. eigenvalues -- -101.47708 -19.10960 -14.29987 -10.30554 -10.18088
 Alpha  occ. eigenvalues --  -10.17123  -9.39354  -7.15513  -7.14895  -7.14883
 Alpha  occ. eigenvalues --   -1.01828  -0.86014  -0.76677  -0.71117  -0.53398
 Alpha  occ. eigenvalues --   -0.45695  -0.43058  -0.41188  -0.37820  -0.36038
 Alpha  occ. eigenvalues --   -0.34573  -0.30743  -0.30175  -0.26515  -0.26249
 Alpha  occ. eigenvalues --   -0.24281  -0.23587
 Alpha virt. eigenvalues --    0.00825   0.02595   0.04090   0.05492   0.05690
 Alpha virt. eigenvalues --    0.07243   0.07394   0.08394   0.09478   0.10147
 Alpha virt. eigenvalues --    0.10375   0.10479   0.12189   0.13304   0.13852

 Mulliken charges:
               1
     1  C    0.161200
     2  O   -0.390997
     3  C   -0.585754
     4  H    0.237762
     5  H    0.237200
     6  H    0.237244
     7  Cl  -0.314738
     8  C    0.081585
     9  N   -0.663502
 Sum of Mulliken charges =  -1.00000

 Dipole moment (field-independent basis, Debye):
    X=             -3.3353    Y=              3.5696    Z=             -3.0443  Tot=              5.7563
 Quadrupole moment (field-independent basis, Debye-Ang):
   XX=            -67.5131   YY=            -50.0310   ZZ=            -49.9618
   XY=              2.6618   XZ=              1.5767   YZ=             -4.6794

 Normal termination of Gaussian 16 at Wed Jan  8 00:20:34 2020.
