 Gaussian 16, Revision A.03,
 Gaussian 16:  AS64L-G16RevA.03 25-Dec-2016

 ----------------------------------------------------------------------
 #p opt=modredundant b3lyp/6-31+g(d) scrf=(smd, solvent=tetrahydrofuran
 )
 ----------------------------------------------------------------------

 -----
 title
 -----
 Symbolic Z-matrix:
 Charge = -1 Multiplicity = 1

 SCF Done:  E(RB3LYP) =  -706.378322653     A.U. after   14 cycles
 SCF Done:  E(RB3LYP) =  -706.407938551     A.U. after   12 cycles
 SCF Done:  E(RB3LYP) =  -706.415354806     A.U. after   12 cycles
 SCF Done:  E(RB3LYP) =  -706.416684762     A.U. after   12 cycles
 SCF Done:  E(RB3LYP) =  -706.416904867     A.U. after   11 cycles
 SCF Done:  E(RB3LYP) =  -706.416932265     A.U. after   10 cycles
 SCF Done:  E(RB3LYP) =  -706.416970023     A.U. after   11 cycles
 SCF Done:  E(RB3LYP) =  -706.416984817     A.U. after   10 cycles
 SCF Done:  E(RB3LYP) =  -706.416988632     A.U. after   10 cycles
 SCF Done:  E(RB3LYP) =  -706.416997032     A.U. after   10 cycles
 SCF Done:  E(RB3LYP) =  -706.417018344     A.U. after   11 cycles
 SCF Done:  E(RB3LYP) =  -706.417066868     A.U. after   11 cycles
 SCF Done:  E(RB3LYP) =  -706.417079272     A.U. after   10 cycles
 SCF Done:  E(RB3LYP) =  -706.417094101     A.U. after   11 cycles
 SCF Done:  E(RB3LYP) =  -706.417095770     A.U. after    9 cycles
 SCF Done:  E(RB3LYP) =  -706.417095921     A.U. after   11 cycles
 SCF Done:  E(RB3LYP) =  -706.417094595     A.U. after    9 cycles
 SCF Done:  E(RB3LYP) =  -706.417094897     A.U. after    8 cycles
 SCF Done:  E(RB3LYP) =  -706.417096698     A.U. after   10 cycles
 SCF Done:  E(RB3LYP) =  -706.417095488     A.U. after   10 cycles
 Optimization completed.
    -- Stationary point found.

                         Standard orientation:
 ---------------------------------------------------------------------
 Center     Atomic      Atomic             Coordinates (Angstroms)
 Number     Number       Type             X           Y           Z
 ---------------------------------------------------------------------
      1          6           0       -0.581663    0.565770    0.278888
      2          8           0       -0.391330    0.803420    1.424670
      3          6           0       -0.455485    1.444321   -0.922414
      4          1           0       -0.120357    0.881851   -1.792790
      5          1           0       -1.451397    1.859729   -1.129457
      6          1           0        0.241123    2.255246   -0.696886
      7         17           0       -1.466306   -1.059246   -0.153238
      8          6           0        2.129585   -0.318220   -0.248079
      9          7           0        3.261978   -0.509747    0.025207
 ---------------------------------------------------------------------

 The electronic state is 1-A.
 Alpha  occ. eigenvalues -- -101.52115 -19.17906 -14.25861 -10.33318 -10.19170
 Alpha  occ. eigenvalues --  -10.12270  -9.43736  -7.20000  -7.19255  -7.19178
 Alpha  occ. eigenvalues --   -1.08631  -0.81462  -0.81311  -0.74007  -0.54059
 Alpha  occ. eigenvalues --   -0.47046  -0.45741  -0.45390  -0.39133  -0.37836
 Alpha  occ. eigenvalues --   -0.35030  -0.30143  -0.29949  -0.28292  -0.26463
 Alpha  occ. eigenvalues --   -0.26435  -0.23100
 Alpha virt. eigenvalues --   -0.02301   0.00801   0.03305   0.04780   0.05351
 Alpha virt. eigenvalues --    0.05875   0.08242   0.08403   0.09109   0.09548
 Alpha virt. eigenvalues --    0.10537   0.11435   0.11512   0.12976   0.13476

 Mulliken charges:
               1
     1  C    0.015181
     2  O   -0.250870
     3  C   -0.582918
     4  H    0.277029
     5  H    0.263192
     6  H    0.262654
     7  Cl  -0.057494
     8  C   -0.280317
     9  N   -0.646457
 Sum of Mulliken charges =  -1.00000

 Dipole moment (field-independent basis, Debye):
    X=            -11.3035    Y=              4.5270    Z=             -2.2081  Tot=             12.3749
 Quadrupole moment (field-independent basis, Debye-Ang):
   XX=            -86.2240   YY=            -45.5854   ZZ=            -48.4391
   XY=              3.3293   XZ=              1.3898   YZ=             -3.3592

 Normal termination of Gaussian 16 at Wed Jan  8 00:26:12 2020.
