 Gaussian 16, Revision A.03,
 Gaussian 16:  AS64L-G16RevA.03 25-Dec-2016

 ----------------------------------------------------------------------
 #p opt=modredundant b3lyp/6-31+g(d) scrf=(smd, solvent=tetrahydrofuran
 )
 ----------------------------------------------------------------------

 -----
 title
 -----
 Symbolic Z-matrix:
 Charge = -1 Multiplicity = 1

 SCF Done:  E(RB3LYP) =  -706.331360582     A.U. after   14 cycles
 SCF Done:  E(RB3LYP) =  -706.357213322     A.U. after   12 cycles
 SCF Done:  E(RB3LYP) =  -706.363028387     A.U. after   12 cycles
 SCF Done:  E(RB3LYP) =  -706.363652108     A.U. after   11 cycles
 SCF Done:  E(RB3LYP) =  -706.363685714     A.U. after   11 cycles
 SCF Done:  E(RB3LYP) =  -706.363705210     A.U. after   11 cycles
 SCF Done:  E(RB3LYP) =  -706.363714693     A.U. after   10 cycles
 SCF Done:  E(RB3LYP) =  -706.363718626     A.U. after   10 cycles
 SCF Done:  E(RB3LYP) =  -706.363753113     A.U. after   11 cycles
 SCF Done:  E(RB3LYP) =  -706.363782195     A.U. after   13 cycles
 SCF Done:  E(RB3LYP) =  -706.363846471     A.U. after   11 cycles
 SCF Done:  E(RB3LYP) =  -706.363933181     A.U. after   11 cycles
 SCF Done:  E(RB3LYP) =  -706.363976173     A.U. after   11 cycles
 SCF Done:  E(RB3LYP) =  -706.363980883     A.U. after   11 cycles
 SCF Done:  E(RB3LYP) =  -706.363972535     A.U. after   11 cycles
 SCF Done:  E(RB3LYP) =  -706.363987692     A.U. after   11 cycles
 SCF Done:  E(RB3LYP) =  -706.363989918     A.U. after   11 cycles
 SCF Done:  E(RB3LYP) =  -706.363991511     A.U. after   11 cycles
 SCF Done:  E(RB3LYP) =  -706.363989977     A.U. after   11 cycles
 Optimization completed.
    -- Stationary point found.

                         Standard orientation:
 ---------------------------------------------------------------------
 Center     Atomic      Atomic             Coordinates (Angstroms)
 Number     Number       Type             X           Y           Z
 ---------------------------------------------------------------------
      1          6           0       -0.651895    0.318003    0.248717
      2          8           0       -0.471890    0.568124    1.441278
      3          6           0       -0.600386    1.449830   -0.771990
      4          1           0       -0.295537    1.105217   -1.762293
      5          1           0       -1.613847    1.872206   -0.845907
      6          1           0        0.080135    2.227085   -0.420664
      7         17           0       -1.166114   -1.009863   -0.222824
      8          6           0        1.931257   -0.221765   -0.322229
      9          7           0        3.050634   -0.265463    0.051379
 ---------------------------------------------------------------------

 The electronic state is 1-A.
 Alpha  occ. eigenvalues -- -101.55547 -19.12326 -14.25588 -10.29832 -10.16996
 Alpha  occ. eigenvalues --  -10.11884  -9.47890  -7.24161  -7.23364  -7.23170
 Alpha  occ. eigenvalues --   -1.04341  -0.91059  -0.81183  -0.71609  -0.55364
 Alpha  occ. eigenvalues --   -0.46343  -0.45567  -0.44487  -0.38277  -0.37065
 Alpha  occ. eigenvalues --   -0.34710  -0.30968  -0.30347  -0.26237  -0.26067
 Alpha  occ. eigenvalues --   -0.25026  -0.22695
 Alpha virt. eigenvalues --   -0.01249   0.02944   0.04812   0.05634   0.06099
 Alpha virt. eigenvalues --    0.07165   0.08421   0.08975   0.09286   0.09521
 Alpha virt. eigenvalues --    0.11229   0.11336   0.12201   0.13443   0.13718

 Mulliken charges:
               1
     1  C   -0.540363
     2  O   -0.362176
     3  C   -0.355158
     4  H    0.240484
     5  H    0.236540
     6  H    0.248560
     7  Cl   0.448231
     8  C   -0.275447
     9  N   -0.640670
 Sum of Mulliken charges =  -1.00000

 Dipole moment (field-independent basis, Debye):
    X=            -11.6999    Y=              1.2233    Z=             -2.8334  Tot=             12.1001
 Quadrupole moment (field-independent basis, Debye-Ang):
   XX=            -78.4979   YY=            -44.2956   ZZ=            -50.9371
   XY=              2.9630   XZ=              2.0408   YZ=             -2.4335

 Normal termination of Gaussian 16 at Tue Jan  7 23:03:26 2020.
