 Gaussian 16, Revision A.03,
 Gaussian 16:  AS64L-G16RevA.03 25-Dec-2016

 ----------------------------------------------------------------------
 #p opt=modredundant b3lyp/6-31+g(d) scrf=(smd, solvent=tetrahydrofuran
 )
 ----------------------------------------------------------------------

 -----
 title
 -----
 Symbolic Z-matrix:
 Charge = -1 Multiplicity = 1

 SCF Done:  E(RB3LYP) =  -706.413446207     A.U. after   14 cycles
 SCF Done:  E(RB3LYP) =  -706.426647980     A.U. after   12 cycles
 SCF Done:  E(RB3LYP) =  -706.428878453     A.U. after   12 cycles
 SCF Done:  E(RB3LYP) =  -706.429008425     A.U. after   11 cycles
 SCF Done:  E(RB3LYP) =  -706.429019619     A.U. after   10 cycles
 SCF Done:  E(RB3LYP) =  -706.429021435     A.U. after    9 cycles
 SCF Done:  E(RB3LYP) =  -706.429021577     A.U. after    8 cycles
 Optimization completed.
    -- Stationary point found.

                         Standard orientation:
 ---------------------------------------------------------------------
 Center     Atomic      Atomic             Coordinates (Angstroms)
 Number     Number       Type             X           Y           Z
 ---------------------------------------------------------------------
      1          6           0        0.023957    0.583687    0.229947
      2          8           0       -0.037690    1.030387    1.375864
      3          6           0       -0.229516    1.441577   -0.999889
      4          1           0       -0.175842    0.866091   -1.926841
      5          1           0       -1.217087    1.905483   -0.911582
      6          1           0        0.531614    2.232956   -1.020598
      7         17           0       -1.348871   -0.978881   -0.059400
      8          6           0        1.405397   -0.361716   -0.066425
      9          7           0        2.413518   -0.941132   -0.159983
 ---------------------------------------------------------------------

 The electronic state is 1-A.
 Alpha  occ. eigenvalues -- -101.46151 -19.10042 -14.31720 -10.29948 -10.20610
 Alpha  occ. eigenvalues --  -10.16810  -9.37769  -7.13852  -7.13357  -7.13340
 Alpha  occ. eigenvalues --   -1.00626  -0.87955  -0.75148  -0.70605  -0.56723
 Alpha  occ. eigenvalues --   -0.45891  -0.42504  -0.40756  -0.38062  -0.35534
 Alpha  occ. eigenvalues --   -0.35208  -0.31906  -0.31694  -0.25369  -0.25236
 Alpha  occ. eigenvalues --   -0.23667  -0.22929
 Alpha virt. eigenvalues --    0.00557   0.02559   0.04143   0.04840   0.05653
 Alpha virt. eigenvalues --    0.07003   0.07183   0.08768   0.09838   0.10213
 Alpha virt. eigenvalues --    0.10524   0.10808   0.12857   0.13776   0.14137

 Mulliken charges:
               1
     1  C    0.166151
     2  O   -0.436123
     3  C   -0.603197
     4  H    0.232701
     5  H    0.238711
     6  H    0.232173
     7  Cl  -0.436188
     8  C    0.245501
     9  N   -0.639729
 Sum of Mulliken charges =  -1.00000

 Dipole moment (field-independent basis, Debye):
    X=             -1.2100    Y=              3.6936    Z=             -3.1973  Tot=              5.0329
 Quadrupole moment (field-independent basis, Debye-Ang):
   XX=            -64.1959   YY=            -51.6922   ZZ=            -50.3301
   XY=              2.0936   XZ=              1.1344   YZ=             -5.1684

 Normal termination of Gaussian 16 at Wed Jan  8 00:31:56 2020.
