 Gaussian 16, Revision A.03,
 Gaussian 16:  AS64L-G16RevA.03 25-Dec-2016

 ----------------------------------------------------------------------
 #p opt=modredundant b3lyp/6-31+g(d) scrf=(smd, solvent=tetrahydrofuran
 )
 ----------------------------------------------------------------------

 -----
 title
 -----
 Symbolic Z-matrix:
 Charge = -1 Multiplicity = 1

 SCF Done:  E(RB3LYP) =  -706.394551014     A.U. after   14 cycles
 SCF Done:  E(RB3LYP) =  -706.416035193     A.U. after   12 cycles
 SCF Done:  E(RB3LYP) =  -706.420625300     A.U. after   12 cycles
 SCF Done:  E(RB3LYP) =  -706.421279884     A.U. after   12 cycles
 SCF Done:  E(RB3LYP) =  -706.421359029     A.U. after   11 cycles
 SCF Done:  E(RB3LYP) =  -706.421379314     A.U. after   10 cycles
 SCF Done:  E(RB3LYP) =  -706.421393861     A.U. after   10 cycles
 SCF Done:  E(RB3LYP) =  -706.421396247     A.U. after    9 cycles
 SCF Done:  E(RB3LYP) =  -706.421397302     A.U. after    9 cycles
 Optimization completed.
    -- Stationary point found.

                         Standard orientation:
 ---------------------------------------------------------------------
 Center     Atomic      Atomic             Coordinates (Angstroms)
 Number     Number       Type             X           Y           Z
 ---------------------------------------------------------------------
      1          6           0        0.031536    0.716446    0.239436
      2          8           0       -0.051868    1.135166    1.357980
      3          6           0       -0.182044    1.443800   -1.057224
      4          1           0       -0.119240    0.772422   -1.912696
      5          1           0       -1.162030    1.930794   -1.031978
      6          1           0        0.599664    2.211798   -1.132562
      7         17           0       -1.459833   -1.011141   -0.045629
      8          6           0        1.538519   -0.405462   -0.043979
      9          7           0        2.512234   -1.047951   -0.120046
 ---------------------------------------------------------------------

 The electronic state is 1-A.
 Alpha  occ. eigenvalues -- -101.44767 -19.14597 -14.30821 -10.32050 -10.19304
 Alpha  occ. eigenvalues --  -10.18256  -9.36261  -7.12268  -7.11902  -7.11893
 Alpha  occ. eigenvalues --   -1.05315  -0.86840  -0.74570  -0.70331  -0.54296
 Alpha  occ. eigenvalues --   -0.47011  -0.43701  -0.43317  -0.38785  -0.36314
 Alpha  occ. eigenvalues --   -0.35601  -0.31214  -0.30976  -0.26541  -0.24320
 Alpha  occ. eigenvalues --   -0.23723  -0.23622
 Alpha virt. eigenvalues --   -0.01363   0.02105   0.03355   0.05099   0.05341
 Alpha virt. eigenvalues --    0.06876   0.07040   0.08119   0.09300   0.10050
 Alpha virt. eigenvalues --    0.10289   0.10587   0.11397   0.13097   0.13763

 Mulliken charges:
               1
     1  C    0.282691
     2  O   -0.317750
     3  C   -0.606732
     4  H    0.254180
     5  H    0.251997
     6  H    0.248874
     7  Cl  -0.586489
     8  C    0.108458
     9  N   -0.635229
 Sum of Mulliken charges =  -1.00000

 Dipole moment (field-independent basis, Debye):
    X=             -1.0215    Y=              5.8759    Z=             -2.7587  Tot=              6.5712
 Quadrupole moment (field-independent basis, Debye-Ang):
   XX=            -68.6660   YY=            -51.9416   ZZ=            -48.4990
   XY=              2.0109   XZ=              1.0410   YZ=             -4.9167

 Normal termination of Gaussian 16 at Wed Jan  8 01:02:45 2020.
