 Gaussian 16, Revision A.03,
 Gaussian 16:  AS64L-G16RevA.03 25-Dec-2016

 ----------------------------------------------------------------------
 #p opt=modredundant b3lyp/6-31+g(d) scrf=(smd, solvent=tetrahydrofuran
 )
 ----------------------------------------------------------------------

 -----
 title
 -----
 Symbolic Z-matrix:
 Charge = -1 Multiplicity = 1

 SCF Done:  E(RB3LYP) =  -706.396639759     A.U. after   14 cycles
 SCF Done:  E(RB3LYP) =  -706.398583382     A.U. after   12 cycles
 SCF Done:  E(RB3LYP) =  -706.398981745     A.U. after   11 cycles
 SCF Done:  E(RB3LYP) =  -706.398998435     A.U. after   11 cycles
 SCF Done:  E(RB3LYP) =  -706.399000390     A.U. after   10 cycles
 SCF Done:  E(RB3LYP) =  -706.399000803     A.U. after    8 cycles
 Optimization completed.
    -- Stationary point found.

                         Standard orientation:
 ---------------------------------------------------------------------
 Center     Atomic      Atomic             Coordinates (Angstroms)
 Number     Number       Type             X           Y           Z
 ---------------------------------------------------------------------
      1          6           0       -0.063302    0.317311    0.202826
      2          8           0       -0.092650    0.740989    1.449647
      3          6           0       -0.249247    1.456367   -0.853284
      4          1           0       -0.193701    1.099965   -1.889890
      5          1           0       -1.230930    1.910999   -0.678646
      6          1           0        0.524039    2.214891   -0.690086
      7         17           0       -1.213805   -0.884180   -0.147552
      8          6           0        1.272816   -0.301832   -0.082567
      9          7           0        2.359269   -0.707684   -0.204574
 ---------------------------------------------------------------------

 The electronic state is 1-A.
 Alpha  occ. eigenvalues -- -101.50376 -19.03749 -14.31606 -10.27011 -10.20717
 Alpha  occ. eigenvalues --  -10.15524  -9.42340  -7.18613  -7.17788  -7.17758
 Alpha  occ. eigenvalues --   -0.94998  -0.87958  -0.81884  -0.69697  -0.60407
 Alpha  occ. eigenvalues --   -0.47043  -0.42066  -0.39617  -0.37189  -0.35663
 Alpha  occ. eigenvalues --   -0.34971  -0.31863  -0.31256  -0.27958  -0.27191
 Alpha  occ. eigenvalues --   -0.19456  -0.18429
 Alpha virt. eigenvalues --    0.02652   0.03753   0.04603   0.05101   0.06248
 Alpha virt. eigenvalues --    0.07111   0.07504   0.09389   0.09796   0.10143
 Alpha virt. eigenvalues --    0.10305   0.11364   0.14050   0.14287   0.14791

 Mulliken charges:
               1
     1  C   -0.003162
     2  O   -0.651814
     3  C   -0.623837
     4  H    0.211114
     5  H    0.222250
     6  H    0.219550
     7  Cl  -0.044809
     8  C    0.355038
     9  N   -0.684328
 Sum of Mulliken charges =  -1.00000

 Dipole moment (field-independent basis, Debye):
    X=             -2.8571    Y=              0.7141    Z=             -4.4945  Tot=              5.3734
 Quadrupole moment (field-independent basis, Debye-Ang):
   XX=            -60.5011   YY=            -49.1090   ZZ=            -53.9694
   XY=              3.2826   XZ=              1.6408   YZ=             -4.8937

 Normal termination of Gaussian 16 at Tue Jan  7 23:14:47 2020.
