 Gaussian 16, Revision A.03,
 Gaussian 16:  AS64L-G16RevA.03 25-Dec-2016

 ----------------------------------------------------------------------
 #p opt=modredundant b3lyp/6-31+g(d) scrf=(smd, solvent=tetrahydrofuran
 )
 ----------------------------------------------------------------------

 -----
 title
 -----
 Symbolic Z-matrix:
 Charge = -1 Multiplicity = 1

 SCF Done:  E(RB3LYP) =  -706.412133902     A.U. after   14 cycles
 SCF Done:  E(RB3LYP) =  -706.429702428     A.U. after   13 cycles
 SCF Done:  E(RB3LYP) =  -706.434122964     A.U. after   13 cycles
 SCF Done:  E(RB3LYP) =  -706.434531151     A.U. after   12 cycles
 SCF Done:  E(RB3LYP) =  -706.434584080     A.U. after   11 cycles
 SCF Done:  E(RB3LYP) =  -706.434590714     A.U. after   10 cycles
 SCF Done:  E(RB3LYP) =  -706.434591015     A.U. after    8 cycles
 Optimization completed.
    -- Stationary point found.

                         Standard orientation:
 ---------------------------------------------------------------------
 Center     Atomic      Atomic             Coordinates (Angstroms)
 Number     Number       Type             X           Y           Z
 ---------------------------------------------------------------------
      1          6           0        0.299196    0.511317    0.202776
      2          8           0        0.360419    0.983538    1.366416
      3          6           0        0.089840    1.459027   -0.982733
      4          1           0       -0.074671    0.932982   -1.926859
      5          1           0       -0.762737    2.109284   -0.769991
      6          1           0        0.992082    2.080351   -1.073223
      7         17           0       -1.530099   -0.690632   -0.018578
      8          6           0        1.151049   -0.566493   -0.066798
      9          7           0        1.961878   -1.381897   -0.252128
 ---------------------------------------------------------------------

 The electronic state is 1-A.
 Alpha  occ. eigenvalues -- -101.45182 -19.09683 -14.32982 -10.27882 -10.21965
 Alpha  occ. eigenvalues --  -10.16497  -9.36780  -7.12807  -7.12401  -7.12379
 Alpha  occ. eigenvalues --   -0.99745  -0.89559  -0.75150  -0.70299  -0.63960
 Alpha  occ. eigenvalues --   -0.45719  -0.42795  -0.41469  -0.37864  -0.36256
 Alpha  occ. eigenvalues --   -0.36083  -0.32274  -0.31336  -0.24657  -0.24423
 Alpha  occ. eigenvalues --   -0.23034  -0.22496
 Alpha virt. eigenvalues --   -0.02260   0.02643   0.03625   0.04873   0.05882
 Alpha virt. eigenvalues --    0.07171   0.07870   0.09027   0.09717   0.10355
 Alpha virt. eigenvalues --    0.10637   0.11670   0.13328   0.13866   0.14503

 Mulliken charges:
               1
     1  C    0.005636
     2  O   -0.485012
     3  C   -0.587391
     4  H    0.227864
     5  H    0.240295
     6  H    0.228057
     7  Cl  -0.512578
     8  C    0.516980
     9  N   -0.633852
 Sum of Mulliken charges =  -1.00000

 Dipole moment (field-independent basis, Debye):
    X=              0.7979    Y=              3.4870    Z=             -3.2782  Tot=              4.8520
 Quadrupole moment (field-independent basis, Debye-Ang):
   XX=            -60.8150   YY=            -53.0266   ZZ=            -50.6383
   XY=              2.1823   XZ=             -0.3208   YZ=             -5.4046

 Normal termination of Gaussian 16 at Wed Jan  8 00:43:08 2020.
