 Gaussian 16, Revision A.03,
 Gaussian 16:  AS64L-G16RevA.03 25-Dec-2016

 ----------------------------------------------------------------------
 #p opt=modredundant b3lyp/6-31+g(d) scrf=(smd, solvent=tetrahydrofuran
 )
 ----------------------------------------------------------------------

 -----
 title
 -----
 Symbolic Z-matrix:
 Charge = -1 Multiplicity = 1

 SCF Done:  E(RB3LYP) =  -706.414375924     A.U. after   13 cycles
 SCF Done:  E(RB3LYP) =  -706.436675483     A.U. after   13 cycles
 SCF Done:  E(RB3LYP) =  -706.445910643     A.U. after   13 cycles
 SCF Done:  E(RB3LYP) =  -706.446533720     A.U. after   12 cycles
 SCF Done:  E(RB3LYP) =  -706.446593697     A.U. after   11 cycles
 SCF Done:  E(RB3LYP) =  -706.446611605     A.U. after   10 cycles
 SCF Done:  E(RB3LYP) =  -706.446613017     A.U. after    9 cycles
 Optimization completed.
    -- Stationary point found.

                         Standard orientation:
 ---------------------------------------------------------------------
 Center     Atomic      Atomic             Coordinates (Angstroms)
 Number     Number       Type             X           Y           Z
 ---------------------------------------------------------------------
      1          6           0        0.413412    0.587575    0.203012
      2          8           0        0.484831    1.042100    1.346296
      3          6           0        0.207774    1.465033   -1.015951
      4          1           0       -0.020973    0.889240   -1.914761
      5          1           0       -0.595552    2.178830   -0.817049
      6          1           0        1.141545    2.023628   -1.178114
      7         17           0       -1.654307   -0.614477    0.003998
      8          6           0        1.159311   -0.685081   -0.068987
      9          7           0        1.862368   -1.598221   -0.233836
 ---------------------------------------------------------------------

 The electronic state is 1-A.
 Alpha  occ. eigenvalues -- -101.43695 -19.12131 -14.33306 -10.29604 -10.22518
 Alpha  occ. eigenvalues --  -10.17086  -9.35194  -7.11137  -7.10871  -7.10856
 Alpha  occ. eigenvalues --   -1.02234  -0.89726  -0.74238  -0.69338  -0.62300
 Alpha  occ. eigenvalues --   -0.46755  -0.42947  -0.42343  -0.38583  -0.36633
 Alpha  occ. eigenvalues --   -0.35978  -0.32917  -0.32108  -0.24864  -0.23420
 Alpha  occ. eigenvalues --   -0.23045  -0.22712
 Alpha virt. eigenvalues --   -0.02940   0.02573   0.03538   0.04576   0.05788
 Alpha virt. eigenvalues --    0.07026   0.07558   0.08831   0.09683   0.10377
 Alpha virt. eigenvalues --    0.10625   0.11409   0.12914   0.13765   0.14371

 Mulliken charges:
               1
     1  C    0.160013
     2  O   -0.422856
     3  C   -0.615602
     4  H    0.237782
     5  H    0.247558
     6  H    0.237566
     7  Cl  -0.662836
     8  C    0.425619
     9  N   -0.607244
 Sum of Mulliken charges =  -1.00000

 Dipole moment (field-independent basis, Debye):
    X=              2.4813    Y=              4.4642    Z=             -3.0658  Tot=              5.9569
 Quadrupole moment (field-independent basis, Debye-Ang):
   XX=            -62.7089   YY=            -53.8707   ZZ=            -49.6636
   XY=              2.0635   XZ=             -0.6391   YZ=             -5.2979

 Normal termination of Gaussian 16 at Wed Jan  8 01:09:18 2020.
