 Gaussian 16, Revision A.03,
 Gaussian 16:  AS64L-G16RevA.03 25-Dec-2016

 ----------------------------------------------------------------------
 #p opt=modredundant b3lyp/6-31+g(d) scrf=(smd, solvent=tetrahydrofuran
 )
 ----------------------------------------------------------------------

 -----
 title
 -----
 Symbolic Z-matrix:
 Charge = -1 Multiplicity = 1

 SCF Done:  E(RB3LYP) =  -706.365405869     A.U. after   14 cycles
 SCF Done:  E(RB3LYP) =  -706.380731958     A.U. after   12 cycles
 SCF Done:  E(RB3LYP) =  -706.382284343     A.U. after   12 cycles
 SCF Done:  E(RB3LYP) =  -706.382428410     A.U. after   11 cycles
 SCF Done:  E(RB3LYP) =  -706.382452214     A.U. after   10 cycles
 SCF Done:  E(RB3LYP) =  -706.382485392     A.U. after   11 cycles
 SCF Done:  E(RB3LYP) =  -706.382507016     A.U. after   11 cycles
 SCF Done:  E(RB3LYP) =  -706.382515734     A.U. after   11 cycles
 SCF Done:  E(RB3LYP) =  -706.382526694     A.U. after   11 cycles
 SCF Done:  E(RB3LYP) =  -706.382525761     A.U. after   10 cycles
 SCF Done:  E(RB3LYP) =  -706.382526466     A.U. after    9 cycles
 SCF Done:  E(RB3LYP) =  -706.382526985     A.U. after   10 cycles
 SCF Done:  E(RB3LYP) =  -706.382526626     A.U. after   10 cycles
 SCF Done:  E(RB3LYP) =  -706.382527024     A.U. after    9 cycles
 Optimization completed.
    -- Stationary point found.

                         Standard orientation:
 ---------------------------------------------------------------------
 Center     Atomic      Atomic             Coordinates (Angstroms)
 Number     Number       Type             X           Y           Z
 ---------------------------------------------------------------------
      1          6           0       -0.474717    0.359981    0.245502
      2          8           0       -0.397953    0.644726    1.439285
      3          6           0       -0.480749    1.457007   -0.812957
      4          1           0       -0.228129    1.082848   -1.806956
      5          1           0       -1.497259    1.878517   -0.840093
      6          1           0        0.218167    2.244018   -0.522578
      7         17           0       -1.164089   -1.011812   -0.205000
      8          6           0        1.706342   -0.207066   -0.214324
      9          7           0        2.853586   -0.403132   -0.024140
 ---------------------------------------------------------------------

 The electronic state is 1-A.
 Alpha  occ. eigenvalues -- -101.53548 -19.11153 -14.26407 -10.29889 -10.16713
 Alpha  occ. eigenvalues --  -10.12887  -9.45614  -7.21909  -7.21072  -7.20966
 Alpha  occ. eigenvalues --   -1.02677  -0.87100  -0.82088  -0.71115  -0.53799
 Alpha  occ. eigenvalues --   -0.45307  -0.44800  -0.42885  -0.37675  -0.36425
 Alpha  occ. eigenvalues --   -0.34511  -0.30072  -0.29818  -0.26940  -0.26574
 Alpha  occ. eigenvalues --   -0.24322  -0.22741
 Alpha virt. eigenvalues --   -0.00282   0.03072   0.04977   0.05869   0.06288
 Alpha virt. eigenvalues --    0.07227   0.08621   0.09175   0.09396   0.09625
 Alpha virt. eigenvalues --    0.10781   0.11132   0.12332   0.13724   0.13851

 Mulliken charges:
               1
     1  C   -0.367855
     2  O   -0.367233
     3  C   -0.393175
     4  H    0.236194
     5  H    0.227740
     6  H    0.242421
     7  Cl   0.261249
     8  C   -0.158089
     9  N   -0.681252
 Sum of Mulliken charges =  -1.00000

 Dipole moment (field-independent basis, Debye):
    X=             -9.0464    Y=              1.6810    Z=             -2.9719  Tot=              9.6693
 Quadrupole moment (field-independent basis, Debye-Ang):
   XX=            -73.7194   YY=            -45.5540   ZZ=            -50.7485
   XY=              3.5306   XZ=              2.0282   YZ=             -2.8714

 Normal termination of Gaussian 16 at Tue Jan  7 23:12:49 2020.
