 Gaussian 16, Revision A.03,
 Gaussian 16:  AS64L-G16RevA.03 25-Dec-2016

 ----------------------------------------------------------------------
 #p opt=modredundant b3lyp/6-31+g(d) scrf=(smd, solvent=tetrahydrofuran
 )
 ----------------------------------------------------------------------

 -----
 title
 -----
 Symbolic Z-matrix:
 Charge = -1 Multiplicity = 1

 SCF Done:  E(RB3LYP) =  -706.416451388     A.U. after   13 cycles
 SCF Done:  E(RB3LYP) =  -706.422039996     A.U. after   12 cycles
 SCF Done:  E(RB3LYP) =  -706.422609482     A.U. after   11 cycles
 SCF Done:  E(RB3LYP) =  -706.422636752     A.U. after   10 cycles
 SCF Done:  E(RB3LYP) =  -706.422638837     A.U. after    9 cycles
 SCF Done:  E(RB3LYP) =  -706.422639053     A.U. after    9 cycles
 Optimization completed.
    -- Stationary point found.

                         Standard orientation:
 ---------------------------------------------------------------------
 Center     Atomic      Atomic             Coordinates (Angstroms)
 Number     Number       Type             X           Y           Z
 ---------------------------------------------------------------------
      1          6           0       -0.025017    0.454077    0.222215
      2          8           0       -0.072843    0.903795    1.405890
      3          6           0       -0.254064    1.439031   -0.939783
      4          1           0       -0.192856    0.960636   -1.922987
      5          1           0       -1.243403    1.893221   -0.818132
      6          1           0        0.504789    2.228556   -0.875717
      7         17           0       -1.271858   -0.943916   -0.095600
      8          6           0        1.340241   -0.325272   -0.075586
      9          7           0        2.395547   -0.810460   -0.178023
 ---------------------------------------------------------------------

 The electronic state is 1-A.
 Alpha  occ. eigenvalues -- -101.48215 -19.06575 -14.31771 -10.28511 -10.20736
 Alpha  occ. eigenvalues --  -10.15985  -9.39972  -7.16158  -7.15490  -7.15467
 Alpha  occ. eigenvalues --   -0.97139  -0.88121  -0.78140  -0.70136  -0.58387
 Alpha  occ. eigenvalues --   -0.45598  -0.42097  -0.39570  -0.37325  -0.35557
 Alpha  occ. eigenvalues --   -0.35040  -0.32133  -0.31536  -0.26852  -0.26390
 Alpha  occ. eigenvalues --   -0.21874  -0.20716
 Alpha virt. eigenvalues --    0.02334   0.02641   0.04434   0.04928   0.05937
 Alpha virt. eigenvalues --    0.06936   0.07373   0.09025   0.09855   0.10180
 Alpha virt. eigenvalues --    0.10439   0.11169   0.13698   0.13957   0.14424

 Mulliken charges:
               1
     1  C    0.077099
     2  O   -0.542245
     3  C   -0.606982
     4  H    0.219879
     5  H    0.228936
     6  H    0.223709
     7  Cl  -0.243681
     8  C    0.300948
     9  N   -0.657663
 Sum of Mulliken charges =  -1.00000

 Dipole moment (field-independent basis, Debye):
    X=             -2.0563    Y=              1.9665    Z=             -3.7541  Tot=              4.7105
 Quadrupole moment (field-independent basis, Debye-Ang):
   XX=            -62.1395   YY=            -50.5779   ZZ=            -52.0496
   XY=              2.6857   XZ=              1.3330   YZ=             -5.1967

 Normal termination of Gaussian 16 at Tue Jan  7 23:58:51 2020.
