 Gaussian 16, Revision A.03,
 Gaussian 16:  AS64L-G16RevA.03 25-Dec-2016

 ----------------------------------------------------------------------
 #p opt=modredundant b3lyp/6-31+g(d) scrf=(smd, solvent=tetrahydrofuran
 )
 ----------------------------------------------------------------------

 -----
 title
 -----
 Symbolic Z-matrix:
 Charge = -1 Multiplicity = 1

 SCF Done:  E(RB3LYP) =  -706.333300605     A.U. after   15 cycles
 SCF Done:  E(RB3LYP) =  -706.361663725     A.U. after   13 cycles
 SCF Done:  E(RB3LYP) =  -706.378578522     A.U. after   15 cycles
 SCF Done:  E(RB3LYP) =  -706.379688557     A.U. after   12 cycles
 SCF Done:  E(RB3LYP) =  -706.379795425     A.U. after   12 cycles
 SCF Done:  E(RB3LYP) =  -706.379881758     A.U. after   12 cycles
 SCF Done:  E(RB3LYP) =  -706.379907509     A.U. after   11 cycles
 SCF Done:  E(RB3LYP) =  -706.379910667     A.U. after   10 cycles
 SCF Done:  E(RB3LYP) =  -706.379910550     A.U. after    9 cycles
 Optimization completed.
    -- Stationary point found.

                         Standard orientation:
 ---------------------------------------------------------------------
 Center     Atomic      Atomic             Coordinates (Angstroms)
 Number     Number       Type             X           Y           Z
 ---------------------------------------------------------------------
      1          6           0       -0.698853   -0.344093    0.175719
      2          8           0       -0.916384   -0.779515    1.334830
      3          6           0       -0.647405   -1.339139   -0.988266
      4          1           0       -0.210172   -0.913593   -1.893935
      5          1           0       -0.079642   -2.218394   -0.676689
      6          1           0       -1.683087   -1.641516   -1.200366
      7         17           0        1.845808    0.170587    0.034988
      8          6           0       -0.886765    0.815880   -0.067495
      9          7           0       -1.239517    1.901966   -0.317456
 ---------------------------------------------------------------------

 The electronic state is 1-A.
 Alpha  occ. eigenvalues -- -101.43012 -19.13122 -14.34443 -10.26878 -10.21847
 Alpha  occ. eigenvalues --  -10.17149  -9.34451  -7.10361  -7.10150  -7.10145
 Alpha  occ. eigenvalues --   -1.02734  -0.90938  -0.77507  -0.68571  -0.68347
 Alpha  occ. eigenvalues --   -0.46939  -0.44705  -0.44481  -0.38573  -0.37517
 Alpha  occ. eigenvalues --   -0.37267  -0.32342  -0.31047  -0.24944  -0.22767
 Alpha  occ. eigenvalues --   -0.22535  -0.22387
 Alpha virt. eigenvalues --   -0.07390   0.01944   0.02647   0.04956   0.05941
 Alpha virt. eigenvalues --    0.07031   0.08885   0.09270   0.09495   0.10451
 Alpha virt. eigenvalues --    0.10707   0.12345   0.13553   0.13816   0.14375

 Mulliken charges:
               1
     1  C    0.004765
     2  O   -0.452800
     3  C   -0.588956
     4  H    0.237941
     5  H    0.250770
     6  H    0.238958
     7  Cl  -0.737703
     8  C    0.624963
     9  N   -0.577938
 Sum of Mulliken charges =  -1.00000

 Dipole moment (field-independent basis, Debye):
    X=             -4.8034    Y=             -3.2769    Z=             -3.0013  Tot=              6.5436
 Quadrupole moment (field-independent basis, Debye-Ang):
   XX=            -62.1422   YY=            -53.5775   ZZ=            -49.5192
   XY=              2.3601   XZ=              2.2159   YZ=              4.6634

 Normal termination of Gaussian 16 at Wed Jan  8 01:28:38 2020.
