 Gaussian 16, Revision A.03,
 Gaussian 16:  AS64L-G16RevA.03 25-Dec-2016

 ----------------------------------------------------------------------
 #p opt=modredundant b3lyp/6-31+g(d) scrf=(smd, solvent=tetrahydrofuran
 )
 ----------------------------------------------------------------------

 -----
 title
 -----
 Symbolic Z-matrix:
 Charge = -1 Multiplicity = 1

 SCF Done:  E(RB3LYP) =  -706.326176722     A.U. after   15 cycles
 SCF Done:  E(RB3LYP) =  -706.358267259     A.U. after   14 cycles
 SCF Done:  E(RB3LYP) =  -706.381756908     A.U. after   15 cycles
 SCF Done:  E(RB3LYP) =  -706.383375555     A.U. after   12 cycles
 SCF Done:  E(RB3LYP) =  -706.383524233     A.U. after   12 cycles
 SCF Done:  E(RB3LYP) =  -706.383252882     A.U. after   13 cycles
 SCF Done:  E(RB3LYP) =  -706.383598337     A.U. after   13 cycles
 SCF Done:  E(RB3LYP) =  -706.383630214     A.U. after   12 cycles
 SCF Done:  E(RB3LYP) =  -706.383640875     A.U. after   11 cycles
 SCF Done:  E(RB3LYP) =  -706.383648186     A.U. after   10 cycles
 SCF Done:  E(RB3LYP) =  -706.383652221     A.U. after   10 cycles
 SCF Done:  E(RB3LYP) =  -706.383654583     A.U. after    9 cycles
 Optimization completed.
    -- Stationary point found.

                         Standard orientation:
 ---------------------------------------------------------------------
 Center     Atomic      Atomic             Coordinates (Angstroms)
 Number     Number       Type             X           Y           Z
 ---------------------------------------------------------------------
      1          6           0       -0.858322   -0.312063    0.166821
      2          8           0       -1.095459   -0.729578    1.322396
      3          6           0       -0.793674   -1.299633   -0.994961
      4          1           0       -0.250443   -0.902825   -1.854923
      5          1           0       -0.325733   -2.223302   -0.647416
      6          1           0       -1.828299   -1.516336   -1.298346
      7         17           0        2.015026    0.062925    0.051695
      8          6           0       -0.904907    0.863384   -0.070146
      9          7           0       -1.106554    1.985604   -0.323942
 ---------------------------------------------------------------------

 The electronic state is 1-A.
 Alpha  occ. eigenvalues -- -101.42003 -19.14739 -14.35576 -10.27672 -10.22542
 Alpha  occ. eigenvalues --  -10.17583  -9.33366  -7.09218  -7.09105  -7.09105
 Alpha  occ. eigenvalues --   -1.04163  -0.91872  -0.78265  -0.69021  -0.67327
 Alpha  occ. eigenvalues --   -0.47789  -0.45502  -0.45378  -0.39201  -0.38227
 Alpha  occ. eigenvalues --   -0.37719  -0.33162  -0.31971  -0.26104  -0.21850
 Alpha  occ. eigenvalues --   -0.21666  -0.21630
 Alpha virt. eigenvalues --   -0.08800   0.01349   0.02506   0.04871   0.05921
 Alpha virt. eigenvalues --    0.06886   0.08929   0.09270   0.09406   0.10426
 Alpha virt. eigenvalues --    0.10712   0.12326   0.13291   0.13660   0.14255

 Mulliken charges:
               1
     1  C    0.151884
     2  O   -0.434007
     3  C   -0.609557
     4  H    0.245928
     5  H    0.253925
     6  H    0.247724
     7  Cl  -0.848096
     8  C    0.532521
     9  N   -0.540322
 Sum of Mulliken charges =  -1.00000

 Dipole moment (field-independent basis, Debye):
    X=             -6.9844    Y=             -2.9453    Z=             -3.0239  Tot=              8.1609
 Quadrupole moment (field-independent basis, Debye-Ang):
   XX=            -65.4844   YY=            -53.2335   ZZ=            -49.1134
   XY=              2.3781   XZ=              2.6221   YZ=              4.4187

 Normal termination of Gaussian 16 at Wed Jan  8 03:06:23 2020.
