 Gaussian 16, Revision A.03,
 Gaussian 16:  AS64L-G16RevA.03 25-Dec-2016

 ----------------------------------------------------------------------
 #p opt=modredundant b3lyp/6-31+g(d) scrf=(smd, solvent=tetrahydrofuran
 )
 ----------------------------------------------------------------------

 -----
 title
 -----
 Symbolic Z-matrix:
 Charge = -1 Multiplicity = 1

 SCF Done:  E(RB3LYP) =  -706.337576988     A.U. after   14 cycles
 SCF Done:  E(RB3LYP) =  -706.351981026     A.U. after   13 cycles
 SCF Done:  E(RB3LYP) =  -706.353249439     A.U. after   13 cycles
 SCF Done:  E(RB3LYP) =  -706.353711469     A.U. after   12 cycles
 SCF Done:  E(RB3LYP) =  -706.353729925     A.U. after   12 cycles
 SCF Done:  E(RB3LYP) =  -706.353758960     A.U. after   11 cycles
 SCF Done:  E(RB3LYP) =  -706.353759238     A.U. after    9 cycles
 Optimization completed.
    -- Stationary point found.

                         Standard orientation:
 ---------------------------------------------------------------------
 Center     Atomic      Atomic             Coordinates (Angstroms)
 Number     Number       Type             X           Y           Z
 ---------------------------------------------------------------------
      1          6           0        0.257392    0.356834    0.193429
      2          8           0        0.353675    0.833552    1.403903
      3          6           0        0.128355    1.444645   -0.922982
      4          1           0       -0.036578    1.022833   -1.919725
      5          1           0       -0.702436    2.102945   -0.656156
      6          1           0        1.059123    2.025581   -0.926928
      7         17           0       -1.469328   -0.622309   -0.050942
      8          6           0        1.048849   -0.508276   -0.061878
      9          7           0        1.888786   -1.285678   -0.301974
 ---------------------------------------------------------------------

 The electronic state is 1-A.
 Alpha  occ. eigenvalues -- -101.47356 -19.07281 -14.32053 -10.25062 -10.20276
 Alpha  occ. eigenvalues --  -10.16279  -9.39070  -7.15220  -7.14613  -7.14587
 Alpha  occ. eigenvalues --   -0.97843  -0.88666  -0.78176  -0.71822  -0.66713
 Alpha  occ. eigenvalues --   -0.45422  -0.43929  -0.41631  -0.37011  -0.36822
 Alpha  occ. eigenvalues --   -0.35687  -0.30527  -0.30310  -0.26213  -0.25803
 Alpha  occ. eigenvalues --   -0.21813  -0.20617
 Alpha virt. eigenvalues --   -0.02391   0.02691   0.03462   0.05197   0.05992
 Alpha virt. eigenvalues --    0.07308   0.08488   0.09558   0.09745   0.10311
 Alpha virt. eigenvalues --    0.10675   0.11819   0.13940   0.14115   0.14650

 Mulliken charges:
               1
     1  C   -0.245178
     2  O   -0.573495
     3  C   -0.565723
     4  H    0.221002
     5  H    0.234906
     6  H    0.221395
     7  Cl  -0.308831
     8  C    0.698890
     9  N   -0.682965
 Sum of Mulliken charges =  -1.00000

 Dipole moment (field-independent basis, Debye):
    X=             -0.8716    Y=              2.5350    Z=             -3.6159  Tot=              4.5012
 Quadrupole moment (field-independent basis, Debye-Ang):
   XX=            -58.4761   YY=            -51.7928   ZZ=            -51.8940
   XY=              3.1543   XZ=             -0.4130   YZ=             -5.4089

 Normal termination of Gaussian 16 at Wed Jan  8 00:11:17 2020.
