 Gaussian 16, Revision A.03,
 Gaussian 16:  AS64L-G16RevA.03 25-Dec-2016

 ----------------------------------------------------------------------
 #p opt=modredundant b3lyp/6-31+g(d) scrf=(smd, solvent=tetrahydrofuran
 )
 ----------------------------------------------------------------------

 -----
 title
 -----
 Symbolic Z-matrix:
 Charge = -1 Multiplicity = 1

 SCF Done:  E(RB3LYP) =  -706.373504779     A.U. after   14 cycles
 SCF Done:  E(RB3LYP) =  -706.374094482     A.U. after   11 cycles
 SCF Done:  E(RB3LYP) =  -706.374190342     A.U. after   11 cycles
 SCF Done:  E(RB3LYP) =  -706.374193696     A.U. after    9 cycles
 SCF Done:  E(RB3LYP) =  -706.374193386     A.U. after    9 cycles
 SCF Done:  E(RB3LYP) =  -706.374193420     A.U. after    8 cycles
 SCF Done:  E(RB3LYP) =  -706.374193568     A.U. after    9 cycles
 SCF Done:  E(RB3LYP) =  -706.374193384     A.U. after    9 cycles
 Optimization completed.
    -- Stationary point found.

                         Standard orientation:
 ---------------------------------------------------------------------
 Center     Atomic      Atomic             Coordinates (Angstroms)
 Number     Number       Type             X           Y           Z
 ---------------------------------------------------------------------
      1          6           0       -0.241655    0.306493    0.220683
      2          8           0       -0.296855    0.665380    1.448208
      3          6           0       -0.353335    1.453414   -0.818426
      4          1           0       -0.172695    1.117093   -1.846198
      5          1           0       -1.368012    1.868878   -0.751824
      6          1           0        0.363998    2.238385   -0.560832
      7         17           0       -1.149535   -0.942628   -0.198184
      8          6           0        1.436099   -0.251335   -0.116910
      9          7           0        2.578142   -0.510593   -0.109967
 ---------------------------------------------------------------------

 The electronic state is 1-A.
 Alpha  occ. eigenvalues -- -101.51546 -19.05396 -14.29732 -10.28225 -10.17802
 Alpha  occ. eigenvalues --  -10.15562  -9.43683  -7.19976  -7.19100  -7.19062
 Alpha  occ. eigenvalues --   -0.97396  -0.85859  -0.84582  -0.69549  -0.54734
 Alpha  occ. eigenvalues --   -0.47329  -0.42568  -0.40191  -0.36956  -0.35606
 Alpha  occ. eigenvalues --   -0.34643  -0.30978  -0.29878  -0.28273  -0.27362
 Alpha  occ. eigenvalues --   -0.21164  -0.19766
 Alpha virt. eigenvalues --    0.02065   0.03740   0.05022   0.05999   0.06730
 Alpha virt. eigenvalues --    0.07309   0.07817   0.09052   0.09643   0.10056
 Alpha virt. eigenvalues --    0.10240   0.11139   0.13269   0.14068   0.14350

 Mulliken charges:
               1
     1  C    0.058986
     2  O   -0.568438
     3  C   -0.594462
     4  H    0.214168
     5  H    0.216375
     6  H    0.225085
     7  Cl   0.058195
     8  C    0.074387
     9  N   -0.684296
 Sum of Mulliken charges =  -1.00000

 Dipole moment (field-independent basis, Debye):
    X=             -4.6237    Y=              0.7615    Z=             -4.0660  Tot=              6.2041
 Quadrupole moment (field-independent basis, Debye-Ang):
   XX=            -64.7959   YY=            -47.4521   ZZ=            -52.9906
   XY=              3.4797   XZ=              2.3194   YZ=             -3.8115

 Normal termination of Gaussian 16 at Tue Jan  7 23:05:24 2020.
