 Gaussian 16, Revision A.03,
 Gaussian 16:  AS64L-G16RevA.03 25-Dec-2016

 ----------------------------------------------------------------------
 #p opt=modredundant b3lyp/6-31+g(d) scrf=(smd, solvent=tetrahydrofuran
 )
 ----------------------------------------------------------------------

 -----
 title
 -----
 Symbolic Z-matrix:
 Charge = -1 Multiplicity = 1

 SCF Done:  E(RB3LYP) =  -706.419201291     A.U. after   14 cycles
 SCF Done:  E(RB3LYP) =  -706.429008239     A.U. after   12 cycles
 SCF Done:  E(RB3LYP) =  -706.430089842     A.U. after   12 cycles
 SCF Done:  E(RB3LYP) =  -706.430198892     A.U. after   11 cycles
 SCF Done:  E(RB3LYP) =  -706.430206790     A.U. after   10 cycles
 SCF Done:  E(RB3LYP) =  -706.430207284     A.U. after    9 cycles
 Optimization completed.
    -- Stationary point found.

                         Standard orientation:
 ---------------------------------------------------------------------
 Center     Atomic      Atomic             Coordinates (Angstroms)
 Number     Number       Type             X           Y           Z
 ---------------------------------------------------------------------
      1          6           0        0.086851    0.482322    0.214229
      2          8           0        0.075179    0.950204    1.392102
      3          6           0       -0.159129    1.449374   -0.957489
      4          1           0       -0.176948    0.947697   -1.930153
      5          1           0       -1.112734    1.960536   -0.793011
      6          1           0        0.645349    2.196503   -0.954586
      7         17           0       -1.350226   -0.880685   -0.063297
      8          6           0        1.270278   -0.394167   -0.070846
      9          7           0        2.258390   -0.994271   -0.214055
 ---------------------------------------------------------------------

 The electronic state is 1-A.
 Alpha  occ. eigenvalues -- -101.47066 -19.07385 -14.32347 -10.28101 -10.21457
 Alpha  occ. eigenvalues --  -10.16119  -9.38766  -7.14894  -7.14322  -7.14297
 Alpha  occ. eigenvalues --   -0.97698  -0.88815  -0.76669  -0.70341  -0.60993
 Alpha  occ. eigenvalues --   -0.45383  -0.42287  -0.40107  -0.37423  -0.35764
 Alpha  occ. eigenvalues --   -0.35440  -0.31972  -0.31857  -0.26085  -0.25697
 Alpha  occ. eigenvalues --   -0.22222  -0.21157
 Alpha virt. eigenvalues --    0.00605   0.02666   0.04276   0.04788   0.05899
 Alpha virt. eigenvalues --    0.07163   0.07386   0.09043   0.09828   0.10213
 Alpha virt. eigenvalues --    0.10543   0.11372   0.13480   0.13934   0.14494

 Mulliken charges:
               1
     1  C    0.035148
     2  O   -0.530479
     3  C   -0.599171
     4  H    0.221718
     5  H    0.233040
     6  H    0.223681
     7  Cl  -0.340731
     8  C    0.407661
     9  N   -0.650865
 Sum of Mulliken charges =  -1.00000

 Dipole moment (field-independent basis, Debye):
    X=             -1.1089    Y=              2.4911    Z=             -3.6134  Tot=              4.5268
 Quadrupole moment (field-independent basis, Debye-Ang):
   XX=            -61.1578   YY=            -51.6060   ZZ=            -51.6522
   XY=              2.4056   XZ=              0.7534   YZ=             -5.4145

 Normal termination of Gaussian 16 at Wed Jan  8 00:16:58 2020.
