 Gaussian 16, Revision A.03,
 Gaussian 16:  AS64L-G16RevA.03 25-Dec-2016

 ----------------------------------------------------------------------
 #p opt=modredundant b3lyp/6-31+g(d) scrf=(smd, solvent=tetrahydrofuran
 )
 ----------------------------------------------------------------------

 -----
 title
 -----
 Symbolic Z-matrix:
 Charge = -1 Multiplicity = 1

 SCF Done:  E(RB3LYP) =  -706.350982615     A.U. after   15 cycles
 SCF Done:  E(RB3LYP) =  -706.386222285     A.U. after   12 cycles
 SCF Done:  E(RB3LYP) =  -706.398651769     A.U. after   13 cycles
 SCF Done:  E(RB3LYP) =  -706.404160276     A.U. after   12 cycles
 SCF Done:  E(RB3LYP) =  -706.405135103     A.U. after   11 cycles
 SCF Done:  E(RB3LYP) =  -706.405222196     A.U. after   11 cycles
 SCF Done:  E(RB3LYP) =  -706.405248636     A.U. after   10 cycles
 SCF Done:  E(RB3LYP) =  -706.405264840     A.U. after   10 cycles
 SCF Done:  E(RB3LYP) =  -706.405271593     A.U. after   10 cycles
 SCF Done:  E(RB3LYP) =  -706.405273017     A.U. after    9 cycles
 SCF Done:  E(RB3LYP) =  -706.405274404     A.U. after    9 cycles
 SCF Done:  E(RB3LYP) =  -706.405274954     A.U. after    8 cycles
 Optimization completed.
    -- Stationary point found.

                         Standard orientation:
 ---------------------------------------------------------------------
 Center     Atomic      Atomic             Coordinates (Angstroms)
 Number     Number       Type             X           Y           Z
 ---------------------------------------------------------------------
      1          6           0        0.286350    0.915423    0.233824
      2          8           0        0.177521    1.235176    1.340986
      3          6           0        0.093942    1.366448   -1.152159
      4          1           0       -0.021313    0.517061   -1.821051
      5          1           0       -0.788079    2.014392   -1.181631
      6          1           0        0.996805    1.932287   -1.420394
      7         17           0       -1.997770   -0.854503   -0.011447
      8          6           0        1.842421   -0.621187   -0.005910
      9          7           0        2.716889   -1.397529   -0.080677
 ---------------------------------------------------------------------

 The electronic state is 1-A.
 Alpha  occ. eigenvalues -- -101.42073 -19.23179 -14.30132 -10.36623 -10.21563
 Alpha  occ. eigenvalues --  -10.18067  -9.33420  -7.09261  -7.09170  -7.09164
 Alpha  occ. eigenvalues --   -1.13803  -0.85915  -0.78142  -0.67368  -0.56115
 Alpha  occ. eigenvalues --   -0.49658  -0.48777  -0.47788  -0.40847  -0.40551
 Alpha  occ. eigenvalues --   -0.37746  -0.30388  -0.30326  -0.28290  -0.22081
 Alpha  occ. eigenvalues --   -0.21763  -0.21728
 Alpha virt. eigenvalues --   -0.05095  -0.02562   0.02429   0.04701   0.04798
 Alpha virt. eigenvalues --    0.05619   0.06756   0.07505   0.08777   0.09919
 Alpha virt. eigenvalues --    0.09972   0.10242   0.10801   0.12637   0.13443

 Mulliken charges:
               1
     1  C    0.545044
     2  O   -0.190290
     3  C   -0.672359
     4  H    0.307015
     5  H    0.284001
     6  H    0.290548
     7  Cl  -0.869444
     8  C   -0.075445
     9  N   -0.619069
 Sum of Mulliken charges =  -1.00000

 Dipole moment (field-independent basis, Debye):
    X=              1.8316    Y=              9.7781    Z=             -2.6709  Tot=             10.3005
 Quadrupole moment (field-independent basis, Debye-Ang):
   XX=            -83.6270   YY=            -51.7100   ZZ=            -45.6243
   XY=              3.3174   XZ=              0.2270   YZ=             -4.4813

 Normal termination of Gaussian 16 at Wed Jan  8 02:15:41 2020.
