 Gaussian 16, Revision A.03,
 Gaussian 16:  AS64L-G16RevA.03 25-Dec-2016

 ----------------------------------------------------------------------
 #p opt=modredundant b3lyp/6-31+g(d) scrf=(smd, solvent=tetrahydrofuran
 )
 ----------------------------------------------------------------------

 -----
 title
 -----
 Symbolic Z-matrix:
 Charge = -1 Multiplicity = 1

 SCF Done:  E(RB3LYP) =  -706.379528393     A.U. after   14 cycles
 SCF Done:  E(RB3LYP) =  -706.407380987     A.U. after   12 cycles
 SCF Done:  E(RB3LYP) =  -706.414400901     A.U. after   12 cycles
 SCF Done:  E(RB3LYP) =  -706.416174093     A.U. after   12 cycles
 SCF Done:  E(RB3LYP) =  -706.416255326     A.U. after   10 cycles
 SCF Done:  E(RB3LYP) =  -706.416245534     A.U. after   11 cycles
 SCF Done:  E(RB3LYP) =  -706.416314890     A.U. after   11 cycles
 SCF Done:  E(RB3LYP) =  -706.416344507     A.U. after   11 cycles
 SCF Done:  E(RB3LYP) =  -706.416346489     A.U. after   10 cycles
 SCF Done:  E(RB3LYP) =  -706.416348071     A.U. after   10 cycles
 SCF Done:  E(RB3LYP) =  -706.416347854     A.U. after    9 cycles
 Optimization completed.
    -- Stationary point found.

                         Standard orientation:
 ---------------------------------------------------------------------
 Center     Atomic      Atomic             Coordinates (Angstroms)
 Number     Number       Type             X           Y           Z
 ---------------------------------------------------------------------
      1          6           0        0.114034    0.819133    0.238293
      2          8           0        0.025323    1.214610    1.346934
      3          6           0       -0.083298    1.451856   -1.096304
      4          1           0       -0.074634    0.712224   -1.893776
      5          1           0       -1.031533    1.998250   -1.089104
      6          1           0        0.746247    2.158772   -1.236489
      7         17           0       -1.599782   -0.981189   -0.029429
      8          6           0        1.605264   -0.486868   -0.027404
      9          7           0        2.505376   -1.230089   -0.106189
 ---------------------------------------------------------------------

 The electronic state is 1-A.
 Alpha  occ. eigenvalues -- -101.43558 -19.17798 -14.30580 -10.33619 -10.19406
 Alpha  occ. eigenvalues --  -10.18937  -9.34977  -7.10915  -7.10665  -7.10659
 Alpha  occ. eigenvalues --   -1.08493  -0.86510  -0.75500  -0.69087  -0.54421
 Alpha  occ. eigenvalues --   -0.47968  -0.45384  -0.44888  -0.39368  -0.37739
 Alpha  occ. eigenvalues --   -0.36296  -0.30922  -0.30766  -0.27683  -0.23422
 Alpha  occ. eigenvalues --   -0.22887  -0.22840
 Alpha virt. eigenvalues --   -0.02896   0.00990   0.02865   0.04982   0.05176
 Alpha virt. eigenvalues --    0.06341   0.06931   0.07794   0.09053   0.09997
 Alpha virt. eigenvalues --    0.10274   0.10565   0.10938   0.12952   0.13636

 Mulliken charges:
               1
     1  C    0.368791
     2  O   -0.257856
     3  C   -0.621258
     4  H    0.271215
     5  H    0.263090
     6  H    0.263434
     7  Cl  -0.708807
     8  C    0.049178
     9  N   -0.627787
 Sum of Mulliken charges =  -1.00000

 Dipole moment (field-independent basis, Debye):
    X=             -0.0325    Y=              7.5939    Z=             -2.6381  Tot=              8.0391
 Quadrupole moment (field-independent basis, Debye-Ang):
   XX=            -71.7183   YY=            -52.4086   ZZ=            -47.3813
   XY=              2.2218   XZ=              0.7357   YZ=             -4.8660

 Normal termination of Gaussian 16 at Wed Jan  8 01:25:29 2020.
