 Gaussian 16, Revision A.03,
 Gaussian 16:  AS64L-G16RevA.03 25-Dec-2016

 ----------------------------------------------------------------------
 #p opt=modredundant b3lyp/6-31+g(d) scrf=(smd, solvent=tetrahydrofuran
 )
 ----------------------------------------------------------------------

 -----
 title
 -----
 Symbolic Z-matrix:
 Charge = -1 Multiplicity = 1

 SCF Done:  E(RB3LYP) =  -706.407880696     A.U. after   13 cycles
 SCF Done:  E(RB3LYP) =  -706.414670547     A.U. after   12 cycles
 SCF Done:  E(RB3LYP) =  -706.415348542     A.U. after   12 cycles
 SCF Done:  E(RB3LYP) =  -706.415392610     A.U. after   11 cycles
 SCF Done:  E(RB3LYP) =  -706.415393730     A.U. after   10 cycles
 SCF Done:  E(RB3LYP) =  -706.415394614     A.U. after    9 cycles
 Optimization completed.
    -- Stationary point found.

                         Standard orientation:
 ---------------------------------------------------------------------
 Center     Atomic      Atomic             Coordinates (Angstroms)
 Number     Number       Type             X           Y           Z
 ---------------------------------------------------------------------
      1          6           0       -0.131040    0.487488    0.237437
      2          8           0       -0.200979    0.905449    1.402643
      3          6           0       -0.315529    1.432932   -0.949276
      4          1           0       -0.169170    0.930801   -1.909549
      5          1           0       -1.328751    1.849936   -0.907492
      6          1           0        0.406398    2.252247   -0.853081
      7         17           0       -1.250420   -1.007295   -0.112723
      8          6           0        1.461960   -0.286661   -0.083568
      9          7           0        2.552022   -0.707873   -0.123183
 ---------------------------------------------------------------------

 The electronic state is 1-A.
 Alpha  occ. eigenvalues -- -101.48551 -19.08496 -14.30486 -10.29635 -10.18834
 Alpha  occ. eigenvalues --  -10.16430  -9.40281  -7.16480  -7.15791  -7.15775
 Alpha  occ. eigenvalues --   -0.99345  -0.86612  -0.78234  -0.70516  -0.54489
 Alpha  occ. eigenvalues --   -0.45657  -0.42538  -0.40037  -0.37519  -0.35837
 Alpha  occ. eigenvalues --   -0.34520  -0.31320  -0.30568  -0.27057  -0.26586
 Alpha  occ. eigenvalues --   -0.23254  -0.22144
 Alpha virt. eigenvalues --    0.01994   0.02899   0.04304   0.05584   0.05736
 Alpha virt. eigenvalues --    0.07108   0.07426   0.08753   0.09721   0.10216
 Alpha virt. eigenvalues --    0.10398   0.10622   0.13157   0.13645   0.13925

 Mulliken charges:
               1
     1  C    0.129466
     2  O   -0.465411
     3  C   -0.595063
     4  H    0.227446
     5  H    0.230265
     6  H    0.230172
     7  Cl  -0.228867
     8  C    0.134763
     9  N   -0.662770
 Sum of Mulliken charges =  -1.00000

 Dipole moment (field-independent basis, Debye):
    X=             -3.1882    Y=              2.5006    Z=             -3.3907  Tot=              5.2834
 Quadrupole moment (field-independent basis, Debye-Ang):
   XX=            -65.4020   YY=            -49.7450   ZZ=            -51.1046
   XY=              2.8422   XZ=              1.6604   YZ=             -4.7447

 Normal termination of Gaussian 16 at Tue Jan  7 23:59:24 2020.
