 Gaussian 16, Revision A.03,
 Gaussian 16:  AS64L-G16RevA.03 25-Dec-2016

 ----------------------------------------------------------------------
 #p opt=modredundant b3lyp/6-31+g(d) scrf=(smd, solvent=tetrahydrofuran
 )
 ----------------------------------------------------------------------

 -----
 title
 -----
 Symbolic Z-matrix:
 Charge = -1 Multiplicity = 1

 SCF Done:  E(RB3LYP) =  -706.328505565     A.U. after   15 cycles
 SCF Done:  E(RB3LYP) =  -706.359496398     A.U. after   14 cycles
 SCF Done:  E(RB3LYP) =  -706.381130342     A.U. after   15 cycles
 SCF Done:  E(RB3LYP) =  -706.382568487     A.U. after   12 cycles
 SCF Done:  E(RB3LYP) =  -706.382737177     A.U. after   12 cycles
 SCF Done:  E(RB3LYP) =  -706.382703504     A.U. after   13 cycles
 SCF Done:  E(RB3LYP) =  -706.382809623     A.U. after   12 cycles
 SCF Done:  E(RB3LYP) =  -706.382808353     A.U. after   11 cycles
 SCF Done:  E(RB3LYP) =  -706.382810789     A.U. after   10 cycles
 SCF Done:  E(RB3LYP) =  -706.382812440     A.U. after    9 cycles
 Optimization completed.
    -- Stationary point found.

                         Standard orientation:
 ---------------------------------------------------------------------
 Center     Atomic      Atomic             Coordinates (Angstroms)
 Number     Number       Type             X           Y           Z
 ---------------------------------------------------------------------
      1          6           0       -0.811816   -0.314916    0.170905
      2          8           0       -1.045049   -0.735657    1.327515
      3          6           0       -0.775517   -1.303120   -0.993684
      4          1           0       -0.261550   -0.904750   -1.870747
      5          1           0       -0.292442   -2.224222   -0.660380
      6          1           0       -1.818004   -1.525576   -1.264083
      7         17           0        1.958162    0.074017    0.044592
      8          6           0       -0.877828    0.859379   -0.067159
      9          7           0       -1.109343    1.976208   -0.320478
 ---------------------------------------------------------------------

 The electronic state is 1-A.
 Alpha  occ. eigenvalues -- -101.42294 -19.14259 -14.35191 -10.27416 -10.22303
 Alpha  occ. eigenvalues --  -10.17452  -9.33678  -7.09546  -7.09405  -7.09404
 Alpha  occ. eigenvalues --   -1.03735  -0.91562  -0.78007  -0.68815  -0.67683
 Alpha  occ. eigenvalues --   -0.47529  -0.45204  -0.45133  -0.39001  -0.38003
 Alpha  occ. eigenvalues --   -0.37561  -0.32888  -0.31668  -0.25755  -0.22122
 Alpha  occ. eigenvalues --   -0.21918  -0.21866
 Alpha virt. eigenvalues --   -0.08368   0.01549   0.02556   0.04905   0.05933
 Alpha virt. eigenvalues --    0.06934   0.08926   0.09273   0.09433   0.10433
 Alpha virt. eigenvalues --    0.10708   0.12356   0.13368   0.13700   0.14297

 Mulliken charges:
               1
     1  C    0.108472
     2  O   -0.439052
     3  C   -0.604324
     4  H    0.243321
     5  H    0.252858
     6  H    0.245229
     7  Cl  -0.816310
     8  C    0.560124
     9  N   -0.550317
 Sum of Mulliken charges =  -1.00000

 Dipole moment (field-independent basis, Debye):
    X=             -6.3544    Y=             -3.0019    Z=             -2.9993  Tot=              7.6411
 Quadrupole moment (field-independent basis, Debye-Ang):
   XX=            -64.1738   YY=            -53.4288   ZZ=            -49.2319
   XY=              2.4400   XZ=              2.5796   YZ=              4.4657

 Normal termination of Gaussian 16 at Wed Jan  8 01:53:30 2020.
