 Gaussian 16, Revision A.03,
 Gaussian 16:  AS64L-G16RevA.03 25-Dec-2016

 ----------------------------------------------------------------------
 #p opt=modredundant b3lyp/6-31+g(d) scrf=(smd, solvent=tetrahydrofuran
 )
 ----------------------------------------------------------------------

 -----
 title
 -----
 Symbolic Z-matrix:
 Charge = -1 Multiplicity = 1

 SCF Done:  E(RB3LYP) =  -706.336611106     A.U. after   14 cycles
 SCF Done:  E(RB3LYP) =  -706.337412627     A.U. after   12 cycles
 SCF Done:  E(RB3LYP) =  -706.337538534     A.U. after   11 cycles
 SCF Done:  E(RB3LYP) =  -706.337546952     A.U. after   11 cycles
 SCF Done:  E(RB3LYP) =  -706.337548393     A.U. after    9 cycles
 Optimization completed.
    -- Stationary point found.

                         Standard orientation:
 ---------------------------------------------------------------------
 Center     Atomic      Atomic             Coordinates (Angstroms)
 Number     Number       Type             X           Y           Z
 ---------------------------------------------------------------------
      1          6           0       -0.227060    0.230463    0.201344
      2          8           0       -0.276941    0.565702    1.471546
      3          6           0       -0.342813    1.469907   -0.754683
      4          1           0       -0.184336    1.212870   -1.810597
      5          1           0       -1.353997    1.881632   -0.635658
      6          1           0        0.384077    2.228461   -0.450451
      7         17           0       -1.122473   -0.893524   -0.228644
      8          6           0        1.373168   -0.247272   -0.116525
      9          7           0        2.518864   -0.482466   -0.138504
 ---------------------------------------------------------------------

 The electronic state is 1-A.
 Alpha  occ. eigenvalues -- -101.51870 -19.03629 -14.30261 -10.27280 -10.18731
 Alpha  occ. eigenvalues --  -10.15260  -9.44329  -7.20622  -7.19705  -7.19661
 Alpha  occ. eigenvalues --   -0.97492  -0.86448  -0.85511  -0.69134  -0.56347
 Alpha  occ. eigenvalues --   -0.48833  -0.42831  -0.40302  -0.36999  -0.35428
 Alpha  occ. eigenvalues --   -0.35055  -0.31270  -0.30336  -0.27942  -0.27006
 Alpha  occ. eigenvalues --   -0.19487  -0.18311
 Alpha virt. eigenvalues --    0.02260   0.04070   0.05028   0.05912   0.06821
 Alpha virt. eigenvalues --    0.07282   0.07701   0.09285   0.09600   0.10045
 Alpha virt. eigenvalues --    0.10229   0.11370   0.13636   0.14166   0.14970

 Mulliken charges:
               1
     1  C    0.061991
     2  O   -0.644503
     3  C   -0.621233
     4  H    0.207761
     5  H    0.212905
     6  H    0.221996
     7  Cl   0.113609
     8  C    0.137523
     9  N   -0.690049
 Sum of Mulliken charges =  -1.00000

 Dipole moment (field-independent basis, Debye):
    X=             -4.2658    Y=              0.2739    Z=             -4.5818  Tot=              6.2661
 Quadrupole moment (field-independent basis, Debye-Ang):
   XX=            -62.9915   YY=            -47.0399   ZZ=            -54.1926
   XY=              3.3864   XZ=              2.5551   YZ=             -3.4918

 Normal termination of Gaussian 16 at Tue Jan  7 22:48:40 2020.
