 Gaussian 16, Revision A.03,
 Gaussian 16:  AS64L-G16RevA.03 25-Dec-2016

 ----------------------------------------------------------------------
 #p opt=modredundant b3lyp/6-31+g(d) scrf=(smd, solvent=tetrahydrofuran
 )
 ----------------------------------------------------------------------

 -----
 title
 -----
 Symbolic Z-matrix:
 Charge = -1 Multiplicity = 1

 SCF Done:  E(RB3LYP) =  -706.393624856     A.U. after   14 cycles
 SCF Done:  E(RB3LYP) =  -706.422780899     A.U. after   13 cycles
 SCF Done:  E(RB3LYP) =  -706.438909936     A.U. after   13 cycles
 SCF Done:  E(RB3LYP) =  -706.441539112     A.U. after   12 cycles
 SCF Done:  E(RB3LYP) =  -706.441843854     A.U. after   11 cycles
 SCF Done:  E(RB3LYP) =  -706.441890975     A.U. after   11 cycles
 SCF Done:  E(RB3LYP) =  -706.441903560     A.U. after   11 cycles
 SCF Done:  E(RB3LYP) =  -706.441903913     A.U. after   10 cycles
 SCF Done:  E(RB3LYP) =  -706.441904702     A.U. after   10 cycles
 SCF Done:  E(RB3LYP) =  -706.441905106     A.U. after    8 cycles
 Optimization completed.
    -- Stationary point found.

                         Standard orientation:
 ---------------------------------------------------------------------
 Center     Atomic      Atomic             Coordinates (Angstroms)
 Number     Number       Type             X           Y           Z
 ---------------------------------------------------------------------
      1          6           0        0.618490    0.694146    0.206802
      2          8           0        0.669498    1.111832    1.328989
      3          6           0        0.420200    1.445856   -1.068897
      4          1           0        0.024835    0.804641   -1.856300
      5          1           0       -0.247493    2.293285   -0.893866
      6          1           0        1.407137    1.823546   -1.376252
      7         17           0       -1.915699   -0.481878    0.020109
      8          6           0        1.234543   -0.867847   -0.059008
      9          7           0        1.769575   -1.893875   -0.188676
 ---------------------------------------------------------------------

 The electronic state is 1-A.
 Alpha  occ. eigenvalues -- -101.41927 -19.16488 -14.33349 -10.32652 -10.22544
 Alpha  occ. eigenvalues --  -10.18572  -9.33300  -7.09142  -7.09045  -7.09038
 Alpha  occ. eigenvalues --   -1.06862  -0.89465  -0.75116  -0.67340  -0.58928
 Alpha  occ. eigenvalues --   -0.48891  -0.44725  -0.44309  -0.39802  -0.37092
 Alpha  occ. eigenvalues --   -0.36963  -0.33248  -0.33139  -0.27935  -0.21842
 Alpha  occ. eigenvalues --   -0.21624  -0.21607
 Alpha virt. eigenvalues --   -0.03773   0.02263   0.03450   0.03544   0.05453
 Alpha virt. eigenvalues --    0.06706   0.06918   0.08560   0.09600   0.09957
 Alpha virt. eigenvalues --    0.10557   0.10681   0.11236   0.13305   0.13594

 Mulliken charges:
               1
     1  C    0.396752
     2  O   -0.333863
     3  C   -0.681616
     4  H    0.263015
     5  H    0.258184
     6  H    0.259909
     7  Cl  -0.851554
     8  C    0.265606
     9  N   -0.576432
 Sum of Mulliken charges =  -1.00000

 Dipole moment (field-independent basis, Debye):
    X=              5.4332    Y=              6.0291    Z=             -2.8983  Tot=              8.6180
 Quadrupole moment (field-independent basis, Debye-Ang):
   XX=            -67.9274   YY=            -54.6938   ZZ=            -48.1562
   XY=              2.9830   XZ=             -1.0308   YZ=             -5.1160

 Normal termination of Gaussian 16 at Wed Jan  8 01:55:32 2020.
