 Gaussian 16, Revision A.03,
 Gaussian 16:  AS64L-G16RevA.03 25-Dec-2016

 ----------------------------------------------------------------------
 #p opt=modredundant b3lyp/6-31+g(d) scrf=(smd, solvent=tetrahydrofuran
 )
 ----------------------------------------------------------------------

 -----
 title
 -----
 Symbolic Z-matrix:
 Charge = -1 Multiplicity = 1

 SCF Done:  E(RB3LYP) =  -706.406213403     A.U. after   14 cycles
 SCF Done:  E(RB3LYP) =  -706.432211831     A.U. after   13 cycles
 SCF Done:  E(RB3LYP) =  -706.445728678     A.U. after   13 cycles
 SCF Done:  E(RB3LYP) =  -706.446988197     A.U. after   12 cycles
 SCF Done:  E(RB3LYP) =  -706.447160279     A.U. after   11 cycles
 SCF Done:  E(RB3LYP) =  -706.447206175     A.U. after   11 cycles
 SCF Done:  E(RB3LYP) =  -706.447229271     A.U. after   11 cycles
 SCF Done:  E(RB3LYP) =  -706.447232015     A.U. after    9 cycles
 Optimization completed.
    -- Stationary point found.

                         Standard orientation:
 ---------------------------------------------------------------------
 Center     Atomic      Atomic             Coordinates (Angstroms)
 Number     Number       Type             X           Y           Z
 ---------------------------------------------------------------------
      1          6           0        0.527005    0.642015    0.203969
      2          8           0        0.600950    1.076585    1.334688
      3          6           0        0.330515    1.457450   -1.043995
      4          1           0        0.024005    0.844516   -1.892274
      5          1           0       -0.409497    2.239665   -0.857540
      6          1           0        1.295854    1.932427   -1.275685
      7         17           0       -1.786700   -0.529194    0.016778
      8          6           0        1.176207   -0.795118   -0.066564
      9          7           0        1.779083   -1.779868   -0.213956
 ---------------------------------------------------------------------

 The electronic state is 1-A.
 Alpha  occ. eigenvalues -- -101.42655 -19.14388 -14.33426 -10.31213 -10.22706
 Alpha  occ. eigenvalues --  -10.17795  -9.34079  -7.09962  -7.09797  -7.09785
 Alpha  occ. eigenvalues --   -1.04623  -0.89689  -0.74441  -0.68236  -0.60548
 Alpha  occ. eigenvalues --   -0.47867  -0.43582  -0.43407  -0.39229  -0.36894
 Alpha  occ. eigenvalues --   -0.36218  -0.33204  -0.32901  -0.26500  -0.22513
 Alpha  occ. eigenvalues --   -0.22236  -0.22168
 Alpha virt. eigenvalues --   -0.03421   0.02463   0.03510   0.04134   0.05651
 Alpha virt. eigenvalues --    0.06870   0.07199   0.08717   0.09643   0.10289
 Alpha virt. eigenvalues --    0.10612   0.10999   0.12457   0.13629   0.14055

 Mulliken charges:
               1
     1  C    0.286646
     2  O   -0.373325
     3  C   -0.647245
     4  H    0.249548
     5  H    0.254059
     6  H    0.248533
     7  Cl  -0.773175
     8  C    0.341695
     9  N   -0.586736
 Sum of Mulliken charges =  -1.00000

 Dipole moment (field-independent basis, Debye):
    X=              4.0772    Y=              5.2636    Z=             -2.9572  Tot=              7.2852
 Quadrupole moment (field-independent basis, Debye-Ang):
   XX=            -65.0449   YY=            -54.3952   ZZ=            -48.8675
   XY=              2.3934   XZ=             -0.8984   YZ=             -5.1981

 Normal termination of Gaussian 16 at Wed Jan  8 01:30:38 2020.
