 Gaussian 16, Revision A.03,
 Gaussian 16:  AS64L-G16RevA.03 25-Dec-2016

 ----------------------------------------------------------------------
 #p opt=modredundant b3lyp/6-31+g(d) scrf=(smd, solvent=tetrahydrofuran
 )
 ----------------------------------------------------------------------

 -----
 title
 -----
 Symbolic Z-matrix:
 Charge = -1 Multiplicity = 1

 SCF Done:  E(RB3LYP) =  -706.411701185     A.U. after   13 cycles
 SCF Done:  E(RB3LYP) =  -706.435997513     A.U. after   13 cycles
 SCF Done:  E(RB3LYP) =  -706.448031928     A.U. after   13 cycles
 SCF Done:  E(RB3LYP) =  -706.448859129     A.U. after   12 cycles
 SCF Done:  E(RB3LYP) =  -706.448984542     A.U. after   11 cycles
 SCF Done:  E(RB3LYP) =  -706.448994358     A.U. after   11 cycles
 SCF Done:  E(RB3LYP) =  -706.449017537     A.U. after   10 cycles
 SCF Done:  E(RB3LYP) =  -706.449017960     A.U. after    9 cycles
 Optimization completed.
    -- Stationary point found.

                         Standard orientation:
 ---------------------------------------------------------------------
 Center     Atomic      Atomic             Coordinates (Angstroms)
 Number     Number       Type             X           Y           Z
 ---------------------------------------------------------------------
      1          6           0        0.509520    0.577366    0.199351
      2          8           0        0.610960    1.020858    1.339730
      3          6           0        0.337388    1.451432   -1.022520
      4          1           0        0.025348    0.884702   -1.901425
      5          1           0       -0.389712    2.238588   -0.807924
      6          1           0        1.311740    1.919769   -1.227953
      7         17           0       -1.738932   -0.499773    0.014318
      8          6           0        1.108406   -0.771358   -0.069495
      9          7           0        1.713557   -1.751202   -0.238280
 ---------------------------------------------------------------------

 The electronic state is 1-A.
 Alpha  occ. eigenvalues -- -101.43173 -19.13024 -14.33561 -10.29966 -10.22759
 Alpha  occ. eigenvalues --  -10.17301  -9.34635  -7.10548  -7.10333  -7.10319
 Alpha  occ. eigenvalues --   -1.03090  -0.89956  -0.74356  -0.68821  -0.62616
 Alpha  occ. eigenvalues --   -0.47186  -0.43204  -0.42858  -0.38827  -0.36869
 Alpha  occ. eigenvalues --   -0.36157  -0.33150  -0.32394  -0.25432  -0.22966
 Alpha  occ. eigenvalues --   -0.22660  -0.22487
 Alpha virt. eigenvalues --   -0.03588   0.02532   0.03353   0.04525   0.05776
 Alpha virt. eigenvalues --    0.06967   0.07585   0.08812   0.09639   0.10375
 Alpha virt. eigenvalues --    0.10627   0.11341   0.12838   0.13716   0.14313

 Mulliken charges:
               1
     1  C    0.199619
     2  O   -0.408767
     3  C   -0.626998
     4  H    0.241854
     5  H    0.249787
     6  H    0.241605
     7  Cl  -0.718676
     8  C    0.416577
     9  N   -0.595002
 Sum of Mulliken charges =  -1.00000

 Dipole moment (field-independent basis, Debye):
    X=              3.5165    Y=              4.5676    Z=             -3.0242  Tot=              6.5095
 Quadrupole moment (field-independent basis, Debye-Ang):
   XX=            -63.2350   YY=            -54.2238   ZZ=            -49.3768
   XY=              2.2603   XZ=             -1.0567   YZ=             -5.2051

 Normal termination of Gaussian 16 at Wed Jan  8 01:21:22 2020.
