 Gaussian 16, Revision A.03,
 Gaussian 16:  AS64L-G16RevA.03 25-Dec-2016

 ----------------------------------------------------------------------
 #p opt=modredundant b3lyp/6-31+g(d) scrf=(smd, solvent=tetrahydrofuran
 )
 ----------------------------------------------------------------------

 -----
 title
 -----
 Symbolic Z-matrix:
 Charge = -1 Multiplicity = 1

 SCF Done:  E(RB3LYP) =  -706.391616427     A.U. after   14 cycles
 SCF Done:  E(RB3LYP) =  -706.411564356     A.U. after   12 cycles
 SCF Done:  E(RB3LYP) =  -706.414808666     A.U. after   12 cycles
 SCF Done:  E(RB3LYP) =  -706.415277540     A.U. after   11 cycles
 SCF Done:  E(RB3LYP) =  -706.415335693     A.U. after   10 cycles
 SCF Done:  E(RB3LYP) =  -706.415371110     A.U. after   11 cycles
 SCF Done:  E(RB3LYP) =  -706.415375750     A.U. after    9 cycles
 SCF Done:  E(RB3LYP) =  -706.415377461     A.U. after   10 cycles
 SCF Done:  E(RB3LYP) =  -706.415377254     A.U. after    9 cycles
 SCF Done:  E(RB3LYP) =  -706.415376900     A.U. after    8 cycles
 SCF Done:  E(RB3LYP) =  -706.415377423     A.U. after    9 cycles
 SCF Done:  E(RB3LYP) =  -706.415376854     A.U. after    9 cycles
 Optimization completed.
    -- Stationary point found.

                         Standard orientation:
 ---------------------------------------------------------------------
 Center     Atomic      Atomic             Coordinates (Angstroms)
 Number     Number       Type             X           Y           Z
 ---------------------------------------------------------------------
      1          6           0       -0.095822    0.686602    0.246275
      2          8           0       -0.187782    1.093280    1.366276
      3          6           0       -0.262821    1.431634   -1.048258
      4          1           0       -0.113635    0.781769   -1.909339
      5          1           0       -1.269960    1.862274   -1.073384
      6          1           0        0.476737    2.242108   -1.060880
      7         17           0       -1.382247   -1.070132   -0.068366
      8          6           0        1.607351   -0.321285   -0.042457
      9          7           0        2.630722   -0.888837   -0.093963
 ---------------------------------------------------------------------

 The electronic state is 1-A.
 Alpha  occ. eigenvalues -- -101.45987 -19.14660 -14.29789 -10.32077 -10.18319
 Alpha  occ. eigenvalues --  -10.17809  -9.37511  -7.13582  -7.13113  -7.13105
 Alpha  occ. eigenvalues --   -1.05451  -0.85730  -0.75029  -0.71272  -0.53254
 Alpha  occ. eigenvalues --   -0.46427  -0.43906  -0.43347  -0.38406  -0.36597
 Alpha  occ. eigenvalues --   -0.35273  -0.30349  -0.30037  -0.26390  -0.25274
 Alpha  occ. eigenvalues --   -0.24393  -0.24373
 Alpha virt. eigenvalues --   -0.01374   0.02067   0.03463   0.05278   0.05539
 Alpha virt. eigenvalues --    0.06758   0.07338   0.07992   0.09201   0.10065
 Alpha virt. eigenvalues --    0.10329   0.10570   0.11352   0.13050   0.13738

 Mulliken charges:
               1
     1  C    0.239909
     2  O   -0.302945
     3  C   -0.586821
     4  H    0.254893
     5  H    0.250444
     6  H    0.249397
     7  Cl  -0.487509
     8  C    0.036265
     9  N   -0.653634
 Sum of Mulliken charges =  -1.00000

 Dipole moment (field-independent basis, Debye):
    X=             -2.7632    Y=              5.5025    Z=             -2.7211  Tot=              6.7318
 Quadrupole moment (field-independent basis, Debye-Ang):
   XX=            -70.1335   YY=            -50.8823   ZZ=            -48.4648
   XY=              2.3007   XZ=              1.3086   YZ=             -4.6973

 Normal termination of Gaussian 16 at Wed Jan  8 00:51:43 2020.
