 Gaussian 16, Revision A.03,
 Gaussian 16:  AS64L-G16RevA.03 25-Dec-2016

 ----------------------------------------------------------------------
 #p opt=modredundant b3lyp/6-31+g(d) scrf=(smd, solvent=tetrahydrofuran
 )
 ----------------------------------------------------------------------

 -----
 title
 -----
 Symbolic Z-matrix:
 Charge = -1 Multiplicity = 1

 SCF Done:  E(RB3LYP) =  -706.371340141     A.U. after   14 cycles
 SCF Done:  E(RB3LYP) =  -706.373698301     A.U. after   12 cycles
 SCF Done:  E(RB3LYP) =  -706.373951969     A.U. after   11 cycles
 SCF Done:  E(RB3LYP) =  -706.373965702     A.U. after   10 cycles
 SCF Done:  E(RB3LYP) =  -706.373967658     A.U. after   10 cycles
 SCF Done:  E(RB3LYP) =  -706.373968085     A.U. after    9 cycles
 SCF Done:  E(RB3LYP) =  -706.373968220     A.U. after    9 cycles
 Optimization completed.
    -- Stationary point found.

                         Standard orientation:
 ---------------------------------------------------------------------
 Center     Atomic      Atomic             Coordinates (Angstroms)
 Number     Number       Type             X           Y           Z
 ---------------------------------------------------------------------
      1          6           0       -0.289206    0.319982    0.227287
      2          8           0       -0.329093    0.663665    1.444253
      3          6           0       -0.373516    1.453011   -0.819729
      4          1           0       -0.166635    1.105564   -1.837646
      5          1           0       -1.390519    1.868473   -0.784437
      6          1           0        0.336119    2.240698   -0.551146
      7         17           0       -1.150677   -0.958300   -0.201502
      8          6           0        1.489276   -0.244744   -0.130605
      9          7           0        2.636567   -0.486065   -0.088141
 ---------------------------------------------------------------------

 The electronic state is 1-A.
 Alpha  occ. eigenvalues -- -101.51874 -19.06662 -14.28915 -10.28587 -10.16546
 Alpha  occ. eigenvalues --  -10.15765  -9.43996  -7.20291  -7.19419  -7.19372
 Alpha  occ. eigenvalues --   -0.98549  -0.85291  -0.84752  -0.69802  -0.53861
 Alpha  occ. eigenvalues --   -0.46796  -0.42994  -0.40640  -0.36809  -0.36079
 Alpha  occ. eigenvalues --   -0.34451  -0.30387  -0.29187  -0.28550  -0.27258
 Alpha  occ. eigenvalues --   -0.22099  -0.20674
 Alpha virt. eigenvalues --    0.01630   0.03482   0.05076   0.06127   0.06608
 Alpha virt. eigenvalues --    0.07718   0.07971   0.08864   0.09642   0.09974
 Alpha virt. eigenvalues --    0.10243   0.11057   0.12805   0.14003   0.14181

 Mulliken charges:
               1
     1  C    0.011015
     2  O   -0.519406
     3  C   -0.562857
     4  H    0.218263
     5  H    0.217037
     6  H    0.228365
     7  Cl   0.087681
     8  C    0.008428
     9  N   -0.688526
 Sum of Mulliken charges =  -1.00000

 Dipole moment (field-independent basis, Debye):
    X=             -5.4648    Y=              0.9979    Z=             -3.7890  Tot=              6.7243
 Quadrupole moment (field-independent basis, Debye-Ang):
   XX=            -66.6227   YY=            -47.0643   ZZ=            -52.3635
   XY=              3.5638   XZ=              2.2886   YZ=             -3.5705

 Normal termination of Gaussian 16 at Tue Jan  7 23:04:20 2020.
