 Gaussian 16, Revision A.03,
 Gaussian 16:  AS64L-G16RevA.03 25-Dec-2016

 ----------------------------------------------------------------------
 #p opt=modredundant b3lyp/6-31+g(d) scrf=(smd, solvent=tetrahydrofuran
 )
 ----------------------------------------------------------------------

 -----
 title
 -----
 Symbolic Z-matrix:
 Charge = -1 Multiplicity = 1

 SCF Done:  E(RB3LYP) =  -706.391198517     A.U. after   14 cycles
 SCF Done:  E(RB3LYP) =  -706.407117157     A.U. after   12 cycles
 SCF Done:  E(RB3LYP) =  -706.408857961     A.U. after   12 cycles
 SCF Done:  E(RB3LYP) =  -706.409012069     A.U. after   11 cycles
 SCF Done:  E(RB3LYP) =  -706.409042390     A.U. after   10 cycles
 SCF Done:  E(RB3LYP) =  -706.409062838     A.U. after   10 cycles
 SCF Done:  E(RB3LYP) =  -706.409071713     A.U. after   10 cycles
 SCF Done:  E(RB3LYP) =  -706.409073559     A.U. after    9 cycles
 SCF Done:  E(RB3LYP) =  -706.409073828     A.U. after    8 cycles
 Optimization completed.
    -- Stationary point found.

                         Standard orientation:
 ---------------------------------------------------------------------
 Center     Atomic      Atomic             Coordinates (Angstroms)
 Number     Number       Type             X           Y           Z
 ---------------------------------------------------------------------
      1          6           0       -0.343552    0.537455    0.251588
      2          8           0       -0.385443    0.901897    1.398478
      3          6           0       -0.393102    1.427318   -0.967262
      4          1           0       -0.129210    0.889482   -1.877668
      5          1           0       -1.417798    1.813658   -1.055456
      6          1           0        0.292982    2.265807   -0.815517
      7         17           0       -1.240799   -1.092073   -0.135177
      8          6           0        1.695712   -0.215573   -0.086571
      9          7           0        2.810972   -0.587725   -0.046816
 ---------------------------------------------------------------------

 The electronic state is 1-A.
 Alpha  occ. eigenvalues -- -101.49995 -19.13338 -14.27611 -10.31384 -10.17720
 Alpha  occ. eigenvalues --  -10.14612  -9.41665  -7.17904  -7.17170  -7.17139
 Alpha  occ. eigenvalues --   -1.04290  -0.83395  -0.79355  -0.72001  -0.52447
 Alpha  occ. eigenvalues --   -0.44956  -0.44491  -0.42794  -0.37503  -0.36967
 Alpha  occ. eigenvalues --   -0.34522  -0.29242  -0.28230  -0.27969  -0.27244
 Alpha  occ. eigenvalues --   -0.25478  -0.23883
 Alpha virt. eigenvalues --   -0.00410   0.02553   0.04131   0.05268   0.06087
 Alpha virt. eigenvalues --    0.06502   0.08244   0.08712   0.09181   0.09851
 Alpha virt. eigenvalues --    0.10632   0.10819   0.11595   0.13311   0.13789

 Mulliken charges:
               1
     1  C   -0.029597
     2  O   -0.311647
     3  C   -0.503886
     4  H    0.248768
     5  H    0.240577
     6  H    0.246818
     7  Cl  -0.127474
     8  C   -0.077868
     9  N   -0.685690
 Sum of Mulliken charges =  -1.00000

 Dipole moment (field-independent basis, Debye):
    X=             -6.6570    Y=              3.5222    Z=             -2.7978  Tot=              8.0343
 Quadrupole moment (field-independent basis, Debye-Ang):
   XX=            -73.1750   YY=            -47.8936   ZZ=            -49.2508
   XY=              3.1784   XZ=              1.7166   YZ=             -3.9610

 Normal termination of Gaussian 16 at Wed Jan  8 00:04:09 2020.
