 Gaussian 16, Revision A.03,
 Gaussian 16:  AS64L-G16RevA.03 25-Dec-2016

 ----------------------------------------------------------------------
 #p opt=modredundant b3lyp/6-31+g(d) scrf=(smd, solvent=tetrahydrofuran
 )
 ----------------------------------------------------------------------

 -----
 title
 -----
 Symbolic Z-matrix:
 Charge = -1 Multiplicity = 1

 SCF Done:  E(RB3LYP) =  -706.374614142     A.U. after   15 cycles
 SCF Done:  E(RB3LYP) =  -706.405548065     A.U. after   13 cycles
 SCF Done:  E(RB3LYP) =  -706.428109988     A.U. after   14 cycles
 SCF Done:  E(RB3LYP) =  -706.429793771     A.U. after   12 cycles
 SCF Done:  E(RB3LYP) =  -706.429982340     A.U. after   11 cycles
 SCF Done:  E(RB3LYP) =  -706.430067091     A.U. after   12 cycles
 SCF Done:  E(RB3LYP) =  -706.430090419     A.U. after   11 cycles
 SCF Done:  E(RB3LYP) =  -706.430104742     A.U. after   11 cycles
 SCF Done:  E(RB3LYP) =  -706.430111174     A.U. after   10 cycles
 SCF Done:  E(RB3LYP) =  -706.430113033     A.U. after   10 cycles
 SCF Done:  E(RB3LYP) =  -706.430113992     A.U. after    9 cycles
 SCF Done:  E(RB3LYP) =  -706.430114466     A.U. after    8 cycles
 Optimization completed.
    -- Stationary point found.

                         Standard orientation:
 ---------------------------------------------------------------------
 Center     Atomic      Atomic             Coordinates (Angstroms)
 Number     Number       Type             X           Y           Z
 ---------------------------------------------------------------------
      1          6           0       -0.849767   -0.367268    0.171599
      2          8           0       -1.079526   -0.772495    1.320596
      3          6           0       -0.776597   -1.322824   -1.003925
      4          1           0       -0.219176   -0.907883   -1.845864
      5          1           0       -0.322079   -2.260822   -0.676631
      6          1           0       -1.808162   -1.524554   -1.329142
      7         17           0        2.012812    0.081088    0.050672
      8          6           0       -0.915133    0.907542   -0.074544
      9          7           0       -1.140456    2.027147   -0.304763
 ---------------------------------------------------------------------

 The electronic state is 1-A.
 Alpha  occ. eigenvalues -- -101.41981 -19.14848 -14.35250 -10.28925 -10.23123
 Alpha  occ. eigenvalues --  -10.17613  -9.33343  -7.09191  -7.09084  -7.09082
 Alpha  occ. eigenvalues --   -1.04412  -0.91590  -0.76675  -0.67876  -0.67256
 Alpha  occ. eigenvalues --   -0.48014  -0.44878  -0.44664  -0.39292  -0.38044
 Alpha  occ. eigenvalues --   -0.37413  -0.33669  -0.32553  -0.26346  -0.21844
 Alpha  occ. eigenvalues --   -0.21646  -0.21619
 Alpha virt. eigenvalues --   -0.07578   0.01812   0.02526   0.04772   0.05882
 Alpha virt. eigenvalues --    0.06853   0.08713   0.09013   0.09423   0.10414
 Alpha virt. eigenvalues --    0.10688   0.11861   0.12984   0.13575   0.14155

 Mulliken charges:
               1
     1  C    0.216750
     2  O   -0.418409
     3  C   -0.631882
     4  H    0.248166
     5  H    0.253419
     6  H    0.249835
     7  Cl  -0.853261
     8  C    0.479646
     9  N   -0.544265
 Sum of Mulliken charges =  -1.00000

 Dipole moment (field-independent basis, Debye):
    X=             -6.9687    Y=             -3.2284    Z=             -3.0346  Tot=              8.2579
 Quadrupole moment (field-independent basis, Debye-Ang):
   XX=            -65.7262   YY=            -53.8053   ZZ=            -49.0508
   XY=              2.5674   XZ=              2.5484   YZ=              4.5496

 Normal termination of Gaussian 16 at Wed Jan  8 02:11:20 2020.
