 Gaussian 16, Revision A.03,
 Gaussian 16:  AS64L-G16RevA.03 25-Dec-2016

 ----------------------------------------------------------------------
 #p opt=modredundant b3lyp/6-31+g(d) scrf=(smd, solvent=tetrahydrofuran
 )
 ----------------------------------------------------------------------

 -----
 title
 -----
 Symbolic Z-matrix:
 Charge = -1 Multiplicity = 1

 SCF Done:  E(RB3LYP) =  -706.409151543     A.U. after   14 cycles
 SCF Done:  E(RB3LYP) =  -706.433437788     A.U. after   13 cycles
 SCF Done:  E(RB3LYP) =  -706.444555634     A.U. after   13 cycles
 SCF Done:  E(RB3LYP) =  -706.445424506     A.U. after   12 cycles
 SCF Done:  E(RB3LYP) =  -706.445521787     A.U. after   11 cycles
 SCF Done:  E(RB3LYP) =  -706.445503762     A.U. after   11 cycles
 SCF Done:  E(RB3LYP) =  -706.445540272     A.U. after   11 cycles
 SCF Done:  E(RB3LYP) =  -706.445539837     A.U. after    9 cycles
 SCF Done:  E(RB3LYP) =  -706.445540962     A.U. after    9 cycles
 Optimization completed.
    -- Stationary point found.

                         Standard orientation:
 ---------------------------------------------------------------------
 Center     Atomic      Atomic             Coordinates (Angstroms)
 Number     Number       Type             X           Y           Z
 ---------------------------------------------------------------------
      1          6           0        0.429728    0.651568    0.208091
      2          8           0        0.474996    1.094007    1.341009
      3          6           0        0.209569    1.470428   -1.037403
      4          1           0       -0.020216    0.851005   -1.905179
      5          1           0       -0.596508    2.187812   -0.864320
      6          1           0        1.140281    2.025191   -1.229275
      7         17           0       -1.702118   -0.638601    0.006360
      8          6           0        1.223888   -0.710072   -0.066219
      9          7           0        1.919052   -1.633055   -0.209177
 ---------------------------------------------------------------------

 The electronic state is 1-A.
 Alpha  occ. eigenvalues -- -101.43097 -19.13596 -14.33197 -10.30862 -10.22476
 Alpha  occ. eigenvalues --  -10.17583  -9.34551  -7.10461  -7.10251  -7.10238
 Alpha  occ. eigenvalues --   -1.03863  -0.89479  -0.74223  -0.68740  -0.60245
 Alpha  occ. eigenvalues --   -0.47451  -0.43262  -0.42958  -0.39013  -0.36681
 Alpha  occ. eigenvalues --   -0.35968  -0.32998  -0.32649  -0.25981  -0.22907
 Alpha  occ. eigenvalues --   -0.22589  -0.22448
 Alpha virt. eigenvalues --   -0.02866   0.02504   0.03676   0.04201   0.05664
 Alpha virt. eigenvalues --    0.06929   0.07208   0.08730   0.09686   0.10309
 Alpha virt. eigenvalues --    0.10608   0.11059   0.12551   0.13677   0.14183

 Mulliken charges:
               1
     1  C    0.252208
     2  O   -0.383369
     3  C   -0.634315
     4  H    0.245810
     5  H    0.251777
     6  H    0.244586
     7  Cl  -0.725723
     8  C    0.346329
     9  N   -0.597303
 Sum of Mulliken charges =  -1.00000

 Dipole moment (field-independent basis, Debye):
    X=              3.0539    Y=              5.2057    Z=             -2.9689  Tot=              6.7260
 Quadrupole moment (field-independent basis, Debye-Ang):
   XX=            -64.5049   YY=            -54.0434   ZZ=            -49.1058
   XY=              2.1189   XZ=             -0.5134   YZ=             -5.2561

 Normal termination of Gaussian 16 at Wed Jan  8 01:20:01 2020.
