 Gaussian 16, Revision A.03,
 Gaussian 16:  AS64L-G16RevA.03 25-Dec-2016

 ----------------------------------------------------------------------
 #p opt=modredundant b3lyp/6-31+g(d) scrf=(smd, solvent=tetrahydrofuran
 )
 ----------------------------------------------------------------------

 -----
 title
 -----
 Symbolic Z-matrix:
 Charge = -1 Multiplicity = 1

 SCF Done:  E(RB3LYP) =  -706.394606479     A.U. after   15 cycles
 SCF Done:  E(RB3LYP) =  -706.426847644     A.U. after   13 cycles
 SCF Done:  E(RB3LYP) =  -706.451201839     A.U. after   14 cycles
 SCF Done:  E(RB3LYP) =  -706.454065977     A.U. after   12 cycles
 SCF Done:  E(RB3LYP) =  -706.454434950     A.U. after   11 cycles
 SCF Done:  E(RB3LYP) =  -706.454587176     A.U. after   11 cycles
 SCF Done:  E(RB3LYP) =  -706.454658182     A.U. after   11 cycles
 SCF Done:  E(RB3LYP) =  -706.454662690     A.U. after   11 cycles
 SCF Done:  E(RB3LYP) =  -706.454676827     A.U. after   10 cycles
 SCF Done:  E(RB3LYP) =  -706.454680166     A.U. after    9 cycles
 SCF Done:  E(RB3LYP) =  -706.454691721     A.U. after   10 cycles
 SCF Done:  E(RB3LYP) =  -706.454695726     A.U. after   10 cycles
 SCF Done:  E(RB3LYP) =  -706.454694669     A.U. after    8 cycles
 SCF Done:  E(RB3LYP) =  -706.454692553     A.U. after    8 cycles
 Optimization completed.
    -- Stationary point found.

                         Standard orientation:
 ---------------------------------------------------------------------
 Center     Atomic      Atomic             Coordinates (Angstroms)
 Number     Number       Type             X           Y           Z
 ---------------------------------------------------------------------
      1          6           0       -0.943487   -0.499685    0.173109
      2          8           0       -1.141173   -0.901120    1.303550
      3          6           0       -0.735846   -1.351789   -1.041787
      4          1           0       -0.009842   -0.897954   -1.719637
      5          1           0       -0.404555   -2.348411   -0.740216
      6          1           0       -1.699108   -1.433570   -1.567345
      7         17           0        2.188425    0.147792    0.063997
      8          6           0       -1.090287    0.971359   -0.080820
      9          7           0       -1.334660    2.093874   -0.256024
 ---------------------------------------------------------------------

 The electronic state is 1-A.
 Alpha  occ. eigenvalues -- -101.41316 -19.16626 -14.35301 -10.31801 -10.24042
 Alpha  occ. eigenvalues --  -10.18320  -9.32644  -7.08451  -7.08413  -7.08410
 Alpha  occ. eigenvalues --   -1.06487  -0.91446  -0.75835  -0.66525  -0.64294
 Alpha  occ. eigenvalues --   -0.49241  -0.45162  -0.44756  -0.40055  -0.38172
 Alpha  occ. eigenvalues --   -0.37446  -0.34542  -0.34101  -0.27928  -0.21189
 Alpha  occ. eigenvalues --   -0.21079  -0.21072
 Alpha virt. eigenvalues --   -0.06487   0.02013   0.02413   0.04275   0.05660
 Alpha virt. eigenvalues --    0.06629   0.07693   0.08752   0.09354   0.10256
 Alpha virt. eigenvalues --    0.10489   0.10649   0.12405   0.13330   0.13562

 Mulliken charges:
               1
     1  C    0.423610
     2  O   -0.378748
     3  C   -0.701871
     4  H    0.266866
     5  H    0.252645
     6  H    0.260319
     7  Cl  -0.930005
     8  C    0.345557
     9  N   -0.538373
 Sum of Mulliken charges =  -1.00000

 Dipole moment (field-independent basis, Debye):
    X=             -8.4354    Y=             -4.0724    Z=             -3.1580  Tot=              9.8850
 Quadrupole moment (field-independent basis, Debye-Ang):
   XX=            -70.7541   YY=            -54.4490   ZZ=            -48.3463
   XY=              2.8295   XZ=              2.2574   YZ=              4.7610

 Normal termination of Gaussian 16 at Wed Jan  8 02:56:49 2020.
