 Gaussian 16, Revision A.03,
 Gaussian 16:  AS64L-G16RevA.03 25-Dec-2016

 ----------------------------------------------------------------------
 #p opt=modredundant b3lyp/6-31+g(d) scrf=(smd, solvent=tetrahydrofuran
 )
 ----------------------------------------------------------------------

 -----
 title
 -----
 Symbolic Z-matrix:
 Charge = -1 Multiplicity = 1

 SCF Done:  E(RB3LYP) =  -706.362211642     A.U. after   14 cycles
 SCF Done:  E(RB3LYP) =  -706.387189392     A.U. after   12 cycles
 SCF Done:  E(RB3LYP) =  -706.392626410     A.U. after   12 cycles
 SCF Done:  E(RB3LYP) =  -706.393117425     A.U. after   12 cycles
 SCF Done:  E(RB3LYP) =  -706.393164893     A.U. after   11 cycles
 SCF Done:  E(RB3LYP) =  -706.393172417     A.U. after    9 cycles
 SCF Done:  E(RB3LYP) =  -706.393179953     A.U. after   11 cycles
 SCF Done:  E(RB3LYP) =  -706.393204493     A.U. after   11 cycles
 SCF Done:  E(RB3LYP) =  -706.352247222     A.U. after   13 cycles
 SCF Done:  E(RB3LYP) =  -706.392404433     A.U. after   13 cycles
 SCF Done:  E(RB3LYP) =  -706.393285102     A.U. after   11 cycles
 SCF Done:  E(RB3LYP) =  -706.390162832     A.U. after   13 cycles
 SCF Done:  E(RB3LYP) =  -706.393265873     A.U. after   11 cycles
 SCF Done:  E(RB3LYP) =  -706.393321492     A.U. after    9 cycles
 SCF Done:  E(RB3LYP) =  -706.393358025     A.U. after   11 cycles
 SCF Done:  E(RB3LYP) =  -706.393383557     A.U. after   11 cycles
 SCF Done:  E(RB3LYP) =  -706.393387858     A.U. after   11 cycles
 SCF Done:  E(RB3LYP) =  -706.393391361     A.U. after   10 cycles
 SCF Done:  E(RB3LYP) =  -706.393393809     A.U. after   10 cycles
 SCF Done:  E(RB3LYP) =  -706.393395859     A.U. after   10 cycles
 Optimization completed.
    -- Stationary point found.

                         Standard orientation:
 ---------------------------------------------------------------------
 Center     Atomic      Atomic             Coordinates (Angstroms)
 Number     Number       Type             X           Y           Z
 ---------------------------------------------------------------------
      1          6           0       -0.629877    0.373520    0.261259
      2          8           0       -0.446130    0.623471    1.440155
      3          6           0       -0.628977    1.455399   -0.800099
      4          1           0       -0.302783    1.081485   -1.771708
      5          1           0       -1.661449    1.823622   -0.894968
      6          1           0        0.012659    2.278035   -0.479277
      7         17           0       -1.177720   -1.056373   -0.202717
      8          6           0        1.949655   -0.157603   -0.333654
      9          7           0        3.056720   -0.320067    0.043696
 ---------------------------------------------------------------------

 The electronic state is 1-A.
 Alpha  occ. eigenvalues -- -101.54770 -19.13452 -14.25655 -10.30700 -10.17378
 Alpha  occ. eigenvalues --  -10.11983  -9.46808  -7.23098  -7.22292  -7.22143
 Alpha  occ. eigenvalues --   -1.04732  -0.88336  -0.81248  -0.72084  -0.54645
 Alpha  occ. eigenvalues --   -0.46353  -0.44907  -0.44276  -0.38505  -0.36782
 Alpha  occ. eigenvalues --   -0.34716  -0.31077  -0.30832  -0.26287  -0.26163
 Alpha  occ. eigenvalues --   -0.25848  -0.22769
 Alpha virt. eigenvalues --   -0.01313   0.02882   0.04801   0.05556   0.05962
 Alpha virt. eigenvalues --    0.06671   0.08426   0.08908   0.09359   0.09478
 Alpha virt. eigenvalues --    0.11246   0.11294   0.11967   0.13405   0.13630

 Mulliken charges:
               1
     1  C   -0.461915
     2  O   -0.327176
     3  C   -0.385524
     4  H    0.248732
     5  H    0.241136
     6  H    0.249937
     7  Cl   0.339851
     8  C   -0.262910
     9  N   -0.642129
 Sum of Mulliken charges =  -1.00000

 Dipole moment (field-independent basis, Debye):
    X=            -11.5290    Y=              1.7423    Z=             -2.5734  Tot=             11.9405
 Quadrupole moment (field-independent basis, Debye-Ang):
   XX=            -79.0647   YY=            -44.6107   ZZ=            -50.5045
   XY=              2.7404   XZ=              1.9314   YZ=             -2.5531

 Normal termination of Gaussian 16 at Tue Jan  7 23:21:03 2020.
