 Gaussian 16, Revision A.03,
 Gaussian 16:  AS64L-G16RevA.03 25-Dec-2016

 ----------------------------------------------------------------------
 #p opt=modredundant b3lyp/6-31+g(d) scrf=(smd, solvent=tetrahydrofuran
 )
 ----------------------------------------------------------------------

 -----
 title
 -----
 Symbolic Z-matrix:
 Charge = -1 Multiplicity = 1

 SCF Done:  E(RB3LYP) =  -706.389354009     A.U. after   14 cycles
 SCF Done:  E(RB3LYP) =  -706.407778960     A.U. after   12 cycles
 SCF Done:  E(RB3LYP) =  -706.409957782     A.U. after   12 cycles
 SCF Done:  E(RB3LYP) =  -706.410222604     A.U. after   11 cycles
 SCF Done:  E(RB3LYP) =  -706.410252120     A.U. after   10 cycles
 SCF Done:  E(RB3LYP) =  -706.410267449     A.U. after   11 cycles
 SCF Done:  E(RB3LYP) =  -706.410269635     A.U. after    9 cycles
 SCF Done:  E(RB3LYP) =  -706.410270099     A.U. after    9 cycles
 SCF Done:  E(RB3LYP) =  -706.410270264     A.U. after    8 cycles
 SCF Done:  E(RB3LYP) =  -706.410270534     A.U. after    9 cycles
 SCF Done:  E(RB3LYP) =  -706.410270819     A.U. after    9 cycles
 SCF Done:  E(RB3LYP) =  -706.410271059     A.U. after    8 cycles
 Optimization completed.
    -- Stationary point found.

                         Standard orientation:
 ---------------------------------------------------------------------
 Center     Atomic      Atomic             Coordinates (Angstroms)
 Number     Number       Type             X           Y           Z
 ---------------------------------------------------------------------
      1          6           0       -0.303047    0.597490    0.251897
      2          8           0       -0.362513    0.975146    1.384889
      3          6           0       -0.355484    1.421782   -1.006068
      4          1           0       -0.098568    0.835259   -1.886908
      5          1           0       -1.377284    1.810669   -1.107154
      6          1           0        0.339465    2.260366   -0.896208
      7         17           0       -1.288259   -1.103863   -0.115189
      8          6           0        1.707914   -0.239344   -0.057532
      9          7           0        2.805800   -0.660194   -0.051488
 ---------------------------------------------------------------------

 The electronic state is 1-A.
 Alpha  occ. eigenvalues -- -101.48859 -19.14548 -14.27862 -10.31939 -10.18192
 Alpha  occ. eigenvalues --  -10.14995  -9.40461  -7.16657  -7.15993  -7.15971
 Alpha  occ. eigenvalues --   -1.05441  -0.83653  -0.77587  -0.72312  -0.52525
 Alpha  occ. eigenvalues --   -0.45259  -0.44565  -0.43395  -0.37569  -0.37205
 Alpha  occ. eigenvalues --   -0.34867  -0.28993  -0.28281  -0.27395  -0.27047
 Alpha  occ. eigenvalues --   -0.25730  -0.24227
 Alpha virt. eigenvalues --   -0.01070   0.02144   0.03702   0.05218   0.05998
 Alpha virt. eigenvalues --    0.06345   0.08054   0.08570   0.09153   0.09887
 Alpha virt. eigenvalues --    0.10622   0.10747   0.11350   0.13145   0.13746

 Mulliken charges:
               1
     1  C    0.054929
     2  O   -0.286716
     3  C   -0.524495
     4  H    0.254905
     5  H    0.246411
     6  H    0.250415
     7  Cl  -0.242647
     8  C   -0.072175
     9  N   -0.680627
 Sum of Mulliken charges =  -1.00000

 Dipole moment (field-independent basis, Debye):
    X=             -6.0234    Y=              4.3531    Z=             -2.7108  Tot=              7.9107
 Quadrupole moment (field-independent basis, Debye-Ang):
   XX=            -73.5757   YY=            -48.5906   ZZ=            -48.6657
   XY=              3.0101   XZ=              1.5641   YZ=             -4.1668

 Normal termination of Gaussian 16 at Wed Jan  8 00:26:26 2020.
