 Gaussian 16, Revision A.03,
 Gaussian 16:  AS64L-G16RevA.03 25-Dec-2016

 ----------------------------------------------------------------------
 #p opt=modredundant b3lyp/6-31+g(d) scrf=(smd, solvent=tetrahydrofuran
 )
 ----------------------------------------------------------------------

 -----
 title
 -----
 Symbolic Z-matrix:
 Charge = -1 Multiplicity = 1

 SCF Done:  E(RB3LYP) =  -706.398555226     A.U. after   14 cycles
 SCF Done:  E(RB3LYP) =  -706.399376310     A.U. after   12 cycles
 SCF Done:  E(RB3LYP) =  -706.399536326     A.U. after   11 cycles
 SCF Done:  E(RB3LYP) =  -706.399538535     A.U. after    9 cycles
 SCF Done:  E(RB3LYP) =  -706.399538926     A.U. after    8 cycles
 Optimization completed.
    -- Stationary point found.

                         Standard orientation:
 ---------------------------------------------------------------------
 Center     Atomic      Atomic             Coordinates (Angstroms)
 Number     Number       Type             X           Y           Z
 ---------------------------------------------------------------------
      1          6           0       -0.111474    0.336467    0.212558
      2          8           0       -0.163945    0.752236    1.442188
      3          6           0       -0.290592    1.448499   -0.862600
      4          1           0       -0.192037    1.075756   -1.889724
      5          1           0       -1.288473    1.883529   -0.731015
      6          1           0        0.457862    2.229073   -0.687981
      7         17           0       -1.194810   -0.921308   -0.154029
      8          6           0        1.332645   -0.283643   -0.087416
      9          7           0        2.437502   -0.650279   -0.169362
 ---------------------------------------------------------------------

 The electronic state is 1-A.
 Alpha  occ. eigenvalues -- -101.50389 -19.04251 -14.31301 -10.27733 -10.20199
 Alpha  occ. eigenvalues --  -10.15527  -9.42350  -7.18622  -7.17797  -7.17769
 Alpha  occ. eigenvalues --   -0.95469  -0.87606  -0.81996  -0.69593  -0.58146
 Alpha  occ. eigenvalues --   -0.46909  -0.41962  -0.39484  -0.37202  -0.35406
 Alpha  occ. eigenvalues --   -0.34854  -0.31961  -0.31111  -0.27957  -0.27264
 Alpha  occ. eigenvalues --   -0.20065  -0.18932
 Alpha virt. eigenvalues --    0.02576   0.04169   0.04478   0.05299   0.06375
 Alpha virt. eigenvalues --    0.06894   0.07512   0.09265   0.09758   0.10186
 Alpha virt. eigenvalues --    0.10261   0.11259   0.14023   0.14220   0.14776

 Mulliken charges:
               1
     1  C    0.050577
     2  O   -0.621989
     3  C   -0.620708
     4  H    0.212098
     5  H    0.221138
     6  H    0.221037
     7  Cl  -0.047982
     8  C    0.262473
     9  N   -0.676644
 Sum of Mulliken charges =  -1.00000

 Dipole moment (field-independent basis, Debye):
    X=             -3.0768    Y=              0.7807    Z=             -4.3278  Tot=              5.3671
 Quadrupole moment (field-independent basis, Debye-Ang):
   XX=            -61.7275   YY=            -48.9162   ZZ=            -53.5522
   XY=              3.2532   XZ=              1.8767   YZ=             -4.7257

 Normal termination of Gaussian 16 at Tue Jan  7 23:16:58 2020.
