 Gaussian 16, Revision A.03,
 Gaussian 16:  AS64L-G16RevA.03 25-Dec-2016

 ----------------------------------------------------------------------
 #p opt=modredundant b3lyp/6-31+g(d) scrf=(smd, solvent=tetrahydrofuran
 )
 ----------------------------------------------------------------------

 -----
 title
 -----
 Symbolic Z-matrix:
 Charge = -1 Multiplicity = 1

 SCF Done:  E(RB3LYP) =  -706.405948681     A.U. after   14 cycles
 SCF Done:  E(RB3LYP) =  -706.430706184     A.U. after   12 cycles
 SCF Done:  E(RB3LYP) =  -706.443468314     A.U. after   14 cycles
 SCF Done:  E(RB3LYP) =  -706.444287504     A.U. after   12 cycles
 SCF Done:  E(RB3LYP) =  -706.444378319     A.U. after   11 cycles
 SCF Done:  E(RB3LYP) =  -706.444283680     A.U. after   11 cycles
 SCF Done:  E(RB3LYP) =  -706.444399560     A.U. after   11 cycles
 SCF Done:  E(RB3LYP) =  -706.444401370     A.U. after    9 cycles
 SCF Done:  E(RB3LYP) =  -706.444403349     A.U. after    9 cycles
 SCF Done:  E(RB3LYP) =  -706.444404809     A.U. after    8 cycles
 Optimization completed.
    -- Stationary point found.

                         Standard orientation:
 ---------------------------------------------------------------------
 Center     Atomic      Atomic             Coordinates (Angstroms)
 Number     Number       Type             X           Y           Z
 ---------------------------------------------------------------------
      1          6           0        0.571620    0.497078    0.191437
      2          8           0        0.721529    0.938139    1.338839
      3          6           0        0.454145    1.421271   -1.007556
      4          1           0        0.101412    0.908341   -1.904565
      5          1           0       -0.217046    2.248026   -0.762930
      6          1           0        1.457104    1.829454   -1.202659
      7         17           0       -1.765693   -0.373260    0.019752
      8          6           0        1.008123   -0.807216   -0.069869
      9          7           0        1.528536   -1.830331   -0.265775
 ---------------------------------------------------------------------

 The electronic state is 1-A.
 Alpha  occ. eigenvalues -- -101.43268 -19.12652 -14.33765 -10.28933 -10.22659
 Alpha  occ. eigenvalues --  -10.17107  -9.34735  -7.10655  -7.10428  -7.10416
 Alpha  occ. eigenvalues --   -1.02548  -0.90261  -0.74834  -0.68906  -0.64902
 Alpha  occ. eigenvalues --   -0.46949  -0.43366  -0.43008  -0.38638  -0.36998
 Alpha  occ. eigenvalues --   -0.36458  -0.33021  -0.31911  -0.24987  -0.23040
 Alpha  occ. eigenvalues --   -0.22735  -0.22534
 Alpha virt. eigenvalues --   -0.04487   0.02526   0.03080   0.04753   0.05859
 Alpha virt. eigenvalues --    0.07010   0.08080   0.08918   0.09606   0.10418
 Alpha virt. eigenvalues --    0.10651   0.11719   0.13054   0.13741   0.14369

 Mulliken charges:
               1
     1  C    0.132996
     2  O   -0.430263
     3  C   -0.616687
     4  H    0.238303
     5  H    0.249214
     6  H    0.239206
     7  Cl  -0.708972
     8  C    0.491340
     9  N   -0.595138
 Sum of Mulliken charges =  -1.00000

 Dipole moment (field-independent basis, Debye):
    X=              3.8008    Y=              4.0178    Z=             -3.0378  Tot=              6.3101
 Quadrupole moment (field-independent basis, Debye-Ang):
   XX=            -62.2933   YY=            -54.2160   ZZ=            -49.5729
   XY=              2.3715   XZ=             -1.5366   YZ=             -5.0780

 Normal termination of Gaussian 16 at Wed Jan  8 01:18:24 2020.
