 Gaussian 16, Revision A.03,
 Gaussian 16:  AS64L-G16RevA.03 25-Dec-2016

 ----------------------------------------------------------------------
 #p opt=modredundant b3lyp/6-31+g(d) scrf=(smd, solvent=tetrahydrofuran
 )
 ----------------------------------------------------------------------

 -----
 title
 -----
 Symbolic Z-matrix:
 Charge = -1 Multiplicity = 1

 SCF Done:  E(RB3LYP) =  -706.366004744     A.U. after   15 cycles
 SCF Done:  E(RB3LYP) =  -706.400256582     A.U. after   13 cycles
 SCF Done:  E(RB3LYP) =  -706.417981182     A.U. after   13 cycles
 SCF Done:  E(RB3LYP) =  -706.424478028     A.U. after   12 cycles
 SCF Done:  E(RB3LYP) =  -706.425428352     A.U. after   11 cycles
 SCF Done:  E(RB3LYP) =  -706.425722418     A.U. after   11 cycles
 SCF Done:  E(RB3LYP) =  -706.425791823     A.U. after   10 cycles
 SCF Done:  E(RB3LYP) =  -706.425801430     A.U. after   10 cycles
 SCF Done:  E(RB3LYP) =  -706.425805981     A.U. after    9 cycles
 SCF Done:  E(RB3LYP) =  -706.425807029     A.U. after    9 cycles
 SCF Done:  E(RB3LYP) =  -706.425807671     A.U. after    9 cycles
 SCF Done:  E(RB3LYP) =  -706.425807372     A.U. after    8 cycles
 SCF Done:  E(RB3LYP) =  -706.425806403     A.U. after    8 cycles
 SCF Done:  E(RB3LYP) =  -706.425804523     A.U. after    9 cycles
 SCF Done:  E(RB3LYP) =  -706.425802966     A.U. after    8 cycles
 SCF Done:  E(RB3LYP) =  -706.425801732     A.U. after    8 cycles
 Optimization completed.
    -- Stationary point found.

                         Standard orientation:
 ---------------------------------------------------------------------
 Center     Atomic      Atomic             Coordinates (Angstroms)
 Number     Number       Type             X           Y           Z
 ---------------------------------------------------------------------
      1          6           0       -0.703131   -0.825935    0.206503
      2          8           0       -0.677550   -1.222699    1.312613
      3          6           0       -0.414049   -1.391947   -1.127896
      4          1           0        0.121541   -0.659610   -1.733068
      5          1           0        0.172610   -2.307607   -1.014121
      6          1           0       -1.378428   -1.614351   -1.605160
      7         17           0        2.181895    0.547171    0.029859
      8          6           0       -1.530593    0.867309   -0.034805
      9          7           0       -2.100130    1.880670   -0.131282
 ---------------------------------------------------------------------

 The electronic state is 1-A.
 Alpha  occ. eigenvalues -- -101.41220 -19.20451 -14.32729 -10.35103 -10.21483
 Alpha  occ. eigenvalues --  -10.20185  -9.32548  -7.08345  -7.08323  -7.08320
 Alpha  occ. eigenvalues --   -1.10979  -0.88633  -0.76919  -0.66439  -0.56889
 Alpha  occ. eigenvalues --   -0.50412  -0.47158  -0.46354  -0.40716  -0.39138
 Alpha  occ. eigenvalues --   -0.37673  -0.32741  -0.32636  -0.29791  -0.21125
 Alpha  occ. eigenvalues --   -0.21034  -0.21019
 Alpha virt. eigenvalues --   -0.04404  -0.00132   0.02487   0.03685   0.04888
 Alpha virt. eigenvalues --    0.06220   0.06446   0.07246   0.08912   0.09584
 Alpha virt. eigenvalues --    0.09898   0.10303   0.10624   0.12822   0.13259

 Mulliken charges:
               1
     1  C    0.610124
     2  O   -0.277286
     3  C   -0.757072
     4  H    0.293595
     5  H    0.265781
     6  H    0.278492
     7  Cl  -0.940249
     8  C    0.104687
     9  N   -0.578072
 Sum of Mulliken charges =  -1.00000

 Dipole moment (field-independent basis, Debye):
    X=             -6.7045    Y=             -7.8074    Z=             -2.9432  Tot=             10.7036
 Quadrupole moment (field-independent basis, Debye-Ang):
   XX=            -77.1421   YY=            -54.4519   ZZ=            -46.6963
   XY=              3.9317   XZ=              0.6972   YZ=              4.8641

 Normal termination of Gaussian 16 at Wed Jan  8 02:56:55 2020.
