 Gaussian 16, Revision A.03,
 Gaussian 16:  AS64L-G16RevA.03 25-Dec-2016

 ----------------------------------------------------------------------
 #p opt=modredundant b3lyp/6-31+g(d) scrf=(smd, solvent=tetrahydrofuran
 )
 ----------------------------------------------------------------------

 -----
 title
 -----
 Symbolic Z-matrix:
 Charge = -1 Multiplicity = 1

 SCF Done:  E(RB3LYP) =  -706.339363520     A.U. after   14 cycles
 SCF Done:  E(RB3LYP) =  -706.377721332     A.U. after   13 cycles
 SCF Done:  E(RB3LYP) =  -706.389534744     A.U. after   12 cycles
 SCF Done:  E(RB3LYP) =  -706.394836220     A.U. after   11 cycles
 SCF Done:  E(RB3LYP) =  -706.395766579     A.U. after   11 cycles
 SCF Done:  E(RB3LYP) =  -706.395851289     A.U. after   10 cycles
 SCF Done:  E(RB3LYP) =  -706.395888495     A.U. after   10 cycles
 SCF Done:  E(RB3LYP) =  -706.395896781     A.U. after    9 cycles
 SCF Done:  E(RB3LYP) =  -706.395903445     A.U. after   10 cycles
 SCF Done:  E(RB3LYP) =  -706.395906318     A.U. after   10 cycles
 SCF Done:  E(RB3LYP) =  -706.395907154     A.U. after    9 cycles
 SCF Done:  E(RB3LYP) =  -706.395907571     A.U. after    8 cycles
 SCF Done:  E(RB3LYP) =  -706.395907683     A.U. after    8 cycles
 Optimization completed.
    -- Stationary point found.

                         Standard orientation:
 ---------------------------------------------------------------------
 Center     Atomic      Atomic             Coordinates (Angstroms)
 Number     Number       Type             X           Y           Z
 ---------------------------------------------------------------------
      1          6           0       -0.192380    0.904668    0.249855
      2          8           0       -0.126583    1.129609    1.371460
      3          6           0       -0.108283    1.313906   -1.148087
      4          1           0        0.035254    0.451449   -1.794446
      5          1           0       -1.055403    1.813748   -1.387346
      6          1           0        0.734788    2.011306   -1.226059
      7         17           0       -1.953354   -0.985058   -0.046627
      8          6           0        2.212301   -0.503829   -0.021521
      9          7           0        3.290746   -0.979408   -0.036093
 ---------------------------------------------------------------------

 The electronic state is 1-A.
 Alpha  occ. eigenvalues -- -101.45206 -19.26239 -14.26773 -10.38303 -10.22998
 Alpha  occ. eigenvalues --  -10.13415  -9.36552  -7.12538  -7.12229  -7.12214
 Alpha  occ. eigenvalues --   -1.16767  -0.82389  -0.79934  -0.70387  -0.57504
 Alpha  occ. eigenvalues --   -0.50661  -0.50121  -0.49585  -0.42324  -0.42054
 Alpha  occ. eigenvalues --   -0.35874  -0.27331  -0.27309  -0.25421  -0.24596
 Alpha  occ. eigenvalues --   -0.24171  -0.23949
 Alpha virt. eigenvalues --   -0.06761  -0.04247   0.02359   0.04694   0.05055
 Alpha virt. eigenvalues --    0.05206   0.07612   0.07900   0.08668   0.09609
 Alpha virt. eigenvalues --    0.09883   0.11101   0.11362   0.12577   0.13231

 Mulliken charges:
               1
     1  C    0.461151
     2  O   -0.142276
     3  C   -0.633777
     4  H    0.328283
     5  H    0.304892
     6  H    0.302106
     7  Cl  -0.689117
     8  C   -0.275827
     9  N   -0.655434
 Sum of Mulliken charges =  -1.00000

 Dipole moment (field-independent basis, Debye):
    X=             -5.7653    Y=             10.0631    Z=             -2.5578  Tot=             11.8764
 Quadrupole moment (field-independent basis, Debye-Ang):
   XX=            -96.9401   YY=            -48.2709   ZZ=            -44.6708
   XY=              3.6944   XZ=              0.4793   YZ=             -4.0139

 Normal termination of Gaussian 16 at Wed Jan  8 01:41:23 2020.
