 Gaussian 16, Revision A.03,
 Gaussian 16:  AS64L-G16RevA.03 25-Dec-2016

 ----------------------------------------------------------------------
 #p opt=modredundant b3lyp/6-31+g(d) scrf=(smd, solvent=tetrahydrofuran
 )
 ----------------------------------------------------------------------

 -----
 title
 -----
 Symbolic Z-matrix:
 Charge = -1 Multiplicity = 1

 SCF Done:  E(RB3LYP) =  -706.377240895     A.U. after   14 cycles
 SCF Done:  E(RB3LYP) =  -706.406182470     A.U. after   12 cycles
 SCF Done:  E(RB3LYP) =  -706.412034555     A.U. after   12 cycles
 SCF Done:  E(RB3LYP) =  -706.413284987     A.U. after   12 cycles
 SCF Done:  E(RB3LYP) =  -706.413393790     A.U. after   11 cycles
 SCF Done:  E(RB3LYP) =  -706.413402845     A.U. after   10 cycles
 SCF Done:  E(RB3LYP) =  -706.413411924     A.U. after   11 cycles
 SCF Done:  E(RB3LYP) =  -706.413417750     A.U. after   10 cycles
 SCF Done:  E(RB3LYP) =  -706.413428477     A.U. after   10 cycles
 SCF Done:  E(RB3LYP) =  -706.413436843     A.U. after   10 cycles
 SCF Done:  E(RB3LYP) =  -706.413443575     A.U. after   10 cycles
 SCF Done:  E(RB3LYP) =  -706.413451152     A.U. after   10 cycles
 SCF Done:  E(RB3LYP) =  -706.413450726     A.U. after    9 cycles
 Optimization completed.
    -- Stationary point found.

                         Standard orientation:
 ---------------------------------------------------------------------
 Center     Atomic      Atomic             Coordinates (Angstroms)
 Number     Number       Type             X           Y           Z
 ---------------------------------------------------------------------
      1          6           0       -0.516522    0.629877    0.258393
      2          8           0       -0.453750    0.943988    1.393225
      3          6           0       -0.409872    1.411411   -1.007088
      4          1           0       -0.072525    0.790456   -1.834204
      5          1           0       -1.414544    1.797015   -1.229777
      6          1           0        0.276867    2.246225   -0.845084
      7         17           0       -1.394837   -1.125092   -0.127154
      8          6           0        2.025563   -0.213299   -0.083447
      9          7           0        3.136772   -0.603852   -0.011752
 ---------------------------------------------------------------------

 The electronic state is 1-A.
 Alpha  occ. eigenvalues -- -101.50561 -19.18435 -14.26111 -10.33640 -10.19446
 Alpha  occ. eigenvalues --  -10.12550  -9.42121  -7.18349  -7.17656  -7.17604
 Alpha  occ. eigenvalues --   -1.09181  -0.81719  -0.79152  -0.73969  -0.53846
 Alpha  occ. eigenvalues --   -0.46653  -0.45918  -0.45594  -0.38920  -0.38061
 Alpha  occ. eigenvalues --   -0.35146  -0.28996  -0.28925  -0.27825  -0.26681
 Alpha  occ. eigenvalues --   -0.26623  -0.23273
 Alpha virt. eigenvalues --   -0.02485   0.00078   0.03176   0.04876   0.05390
 Alpha virt. eigenvalues --    0.05849   0.08331   0.08662   0.08981   0.09619
 Alpha virt. eigenvalues --    0.10464   0.11328   0.11413   0.13088   0.13528

 Mulliken charges:
               1
     1  C    0.031846
     2  O   -0.224261
     3  C   -0.544918
     4  H    0.277581
     5  H    0.264153
     6  H    0.265628
     7  Cl  -0.175245
     8  C   -0.230094
     9  N   -0.664691
 Sum of Mulliken charges =  -1.00000

 Dipole moment (field-independent basis, Debye):
    X=             -9.8157    Y=              5.0433    Z=             -2.4887  Tot=             11.3127
 Quadrupole moment (field-independent basis, Debye-Ang):
   XX=            -83.5877   YY=            -46.8940   ZZ=            -47.6039
   XY=              3.2213   XZ=              1.3912   YZ=             -3.7234

 Normal termination of Gaussian 16 at Wed Jan  8 00:29:36 2020.
