 Gaussian 16, Revision A.03,
 Gaussian 16:  AS64L-G16RevA.03 25-Dec-2016

 ----------------------------------------------------------------------
 #p opt=modredundant b3lyp/6-31+g(d) scrf=(smd, solvent=tetrahydrofuran
 )
 ----------------------------------------------------------------------

 -----
 title
 -----
 Symbolic Z-matrix:
 Charge = -1 Multiplicity = 1

 SCF Done:  E(RB3LYP) =  -706.361564970     A.U. after   14 cycles
 SCF Done:  E(RB3LYP) =  -706.366497917     A.U. after   12 cycles
 SCF Done:  E(RB3LYP) =  -706.367514453     A.U. after   12 cycles
 SCF Done:  E(RB3LYP) =  -706.367592120     A.U. after   11 cycles
 SCF Done:  E(RB3LYP) =  -706.367608210     A.U. after   10 cycles
 SCF Done:  E(RB3LYP) =  -706.367612812     A.U. after   10 cycles
 SCF Done:  E(RB3LYP) =  -706.367613264     A.U. after    9 cycles
 SCF Done:  E(RB3LYP) =  -706.367613573     A.U. after    8 cycles
 Optimization completed.
    -- Stationary point found.

                         Standard orientation:
 ---------------------------------------------------------------------
 Center     Atomic      Atomic             Coordinates (Angstroms)
 Number     Number       Type             X           Y           Z
 ---------------------------------------------------------------------
      1          6           0       -0.059819    0.240065    0.180828
      2          8           0       -0.064300    0.633921    1.478841
      3          6           0       -0.225865    1.479531   -0.788107
      4          1           0       -0.196759    1.204022   -1.851114
      5          1           0       -1.194291    1.937078   -0.556759
      6          1           0        0.567969    2.203233   -0.577892
      7         17           0       -1.191381   -0.833244   -0.176347
      8          6           0        1.207702   -0.292741   -0.082818
      9          7           0        2.294120   -0.687382   -0.243783
 ---------------------------------------------------------------------

 The electronic state is 1-A.
 Alpha  occ. eigenvalues -- -101.51222 -19.02852 -14.31322 -10.25656 -10.20577
 Alpha  occ. eigenvalues --  -10.15542  -9.43372  -7.19670  -7.18782  -7.18749
 Alpha  occ. eigenvalues --   -0.95507  -0.87693  -0.83148  -0.69839  -0.62602
 Alpha  occ. eigenvalues --   -0.48354  -0.42704  -0.40146  -0.37315  -0.35756
 Alpha  occ. eigenvalues --   -0.35334  -0.31385  -0.31025  -0.28105  -0.26877
 Alpha  occ. eigenvalues --   -0.18294  -0.17518
 Alpha virt. eigenvalues --    0.02681   0.03949   0.04638   0.05248   0.06286
 Alpha virt. eigenvalues --    0.07342   0.07695   0.09597   0.09833   0.10121
 Alpha virt. eigenvalues --    0.10306   0.11458   0.14093   0.14420   0.15014

 Mulliken charges:
               1
     1  C   -0.073120
     2  O   -0.702921
     3  C   -0.635883
     4  H    0.209075
     5  H    0.221524
     6  H    0.218801
     7  Cl   0.045076
     8  C    0.431381
     9  N   -0.713933
 Sum of Mulliken charges =  -1.00000

 Dipole moment (field-independent basis, Debye):
    X=             -3.2648    Y=              0.4908    Z=             -4.8638  Tot=              5.8785
 Quadrupole moment (field-independent basis, Debye-Ang):
   XX=            -59.5129   YY=            -48.2734   ZZ=            -54.9172
   XY=              3.5178   XZ=              1.7459   YZ=             -4.5366

 Normal termination of Gaussian 16 at Tue Jan  7 22:59:34 2020.
