 Gaussian 16, Revision A.03,
 Gaussian 16:  AS64L-G16RevA.03 25-Dec-2016

 ----------------------------------------------------------------------
 #p opt=modredundant b3lyp/6-31+g(d) scrf=(smd, solvent=tetrahydrofuran
 )
 ----------------------------------------------------------------------

 -----
 title
 -----
 Symbolic Z-matrix:
 Charge = -1 Multiplicity = 1

 SCF Done:  E(RB3LYP) =  -706.382245977     A.U. after   14 cycles
 SCF Done:  E(RB3LYP) =  -706.405639612     A.U. after   13 cycles
 SCF Done:  E(RB3LYP) =  -706.408823682     A.U. after   12 cycles
 SCF Done:  E(RB3LYP) =  -706.409379726     A.U. after   12 cycles
 SCF Done:  E(RB3LYP) =  -706.409413634     A.U. after   10 cycles
 SCF Done:  E(RB3LYP) =  -706.409430104     A.U. after   11 cycles
 SCF Done:  E(RB3LYP) =  -706.409429176     A.U. after   11 cycles
 SCF Done:  E(RB3LYP) =  -706.409431558     A.U. after    9 cycles
 SCF Done:  E(RB3LYP) =  -706.409436527     A.U. after    9 cycles
 SCF Done:  E(RB3LYP) =  -706.409437417     A.U. after   10 cycles
 SCF Done:  E(RB3LYP) =  -706.409439241     A.U. after    9 cycles
 SCF Done:  E(RB3LYP) =  -706.409441085     A.U. after    9 cycles
 Optimization completed.
    -- Stationary point found.

                         Standard orientation:
 ---------------------------------------------------------------------
 Center     Atomic      Atomic             Coordinates (Angstroms)
 Number     Number       Type             X           Y           Z
 ---------------------------------------------------------------------
      1          6           0       -0.299318    0.662903    0.253195
      2          8           0       -0.345589    1.033402    1.376301
      3          6           0       -0.317172    1.415686   -1.040498
      4          1           0       -0.062066    0.775519   -1.882074
      5          1           0       -1.330721    1.816300   -1.172129
      6          1           0        0.394951    2.243482   -0.961290
      7         17           0       -1.370130   -1.108603   -0.100542
      8          6           0        1.780696   -0.274310   -0.038646
      9          7           0        2.867074   -0.725992   -0.047145
 ---------------------------------------------------------------------

 The electronic state is 1-A.
 Alpha  occ. eigenvalues -- -101.48170 -19.16818 -14.27570 -10.32974 -10.19021
 Alpha  occ. eigenvalues --  -10.14588  -9.39704  -7.15865  -7.15263  -7.15243
 Alpha  occ. eigenvalues --   -1.07634  -0.83311  -0.76727  -0.72772  -0.53026
 Alpha  occ. eigenvalues --   -0.45679  -0.45233  -0.44753  -0.37951  -0.37760
 Alpha  occ. eigenvalues --   -0.35423  -0.28491  -0.28025  -0.27069  -0.26842
 Alpha  occ. eigenvalues --   -0.26081  -0.24285
 Alpha virt. eigenvalues --   -0.02365   0.01252   0.03302   0.05120   0.05821
 Alpha virt. eigenvalues --    0.06023   0.07994   0.08576   0.09079   0.09860
 Alpha virt. eigenvalues --    0.10607   0.10814   0.11117   0.13009   0.13667

 Mulliken charges:
               1
     1  C    0.098939
     2  O   -0.240018
     3  C   -0.527502
     4  H    0.267024
     5  H    0.256215
     6  H    0.258574
     7  Cl  -0.329129
     8  C   -0.110146
     9  N   -0.673957
 Sum of Mulliken charges =  -1.00000

 Dipole moment (field-independent basis, Debye):
    X=             -6.2031    Y=              5.4476    Z=             -2.5829  Tot=              8.6503
 Quadrupole moment (field-independent basis, Debye-Ang):
   XX=            -76.2541   YY=            -48.7560   ZZ=            -47.8152
   XY=              3.0052   XZ=              1.3397   YZ=             -4.1963

 Normal termination of Gaussian 16 at Wed Jan  8 00:43:38 2020.
