 Gaussian 16, Revision A.03,
 Gaussian 16:  AS64L-G16RevA.03 25-Dec-2016

 ----------------------------------------------------------------------
 #p opt=modredundant b3lyp/6-31+g(d) scrf=(smd, solvent=tetrahydrofuran
 )
 ----------------------------------------------------------------------

 -----
 title
 -----
 Symbolic Z-matrix:
 Charge = -1 Multiplicity = 1

 SCF Done:  E(RB3LYP) =  -706.383390501     A.U. after   14 cycles
 SCF Done:  E(RB3LYP) =  -706.411549566     A.U. after   13 cycles
 SCF Done:  E(RB3LYP) =  -706.421250961     A.U. after   13 cycles
 SCF Done:  E(RB3LYP) =  -706.423611015     A.U. after   12 cycles
 SCF Done:  E(RB3LYP) =  -706.423783716     A.U. after   11 cycles
 SCF Done:  E(RB3LYP) =  -706.423813450     A.U. after   10 cycles
 SCF Done:  E(RB3LYP) =  -706.423824801     A.U. after   10 cycles
 SCF Done:  E(RB3LYP) =  -706.423825311     A.U. after    9 cycles
 SCF Done:  E(RB3LYP) =  -706.423825306     A.U. after    9 cycles
 Optimization completed.
    -- Stationary point found.

                         Standard orientation:
 ---------------------------------------------------------------------
 Center     Atomic      Atomic             Coordinates (Angstroms)
 Number     Number       Type             X           Y           Z
 ---------------------------------------------------------------------
      1          6           0        0.270384    0.806706    0.230308
      2          8           0        0.205036    1.208636    1.342655
      3          6           0        0.040446    1.458426   -1.090163
      4          1           0       -0.057126    0.723766   -1.886996
      5          1           0       -0.855796    2.082403   -1.030474
      6          1           0        0.915961    2.095211   -1.283507
      7         17           0       -1.709228   -0.861142   -0.013456
      8          6           0        1.518556   -0.600431   -0.038082
      9          7           0        2.348175   -1.417038   -0.131984
 ---------------------------------------------------------------------

 The electronic state is 1-A.
 Alpha  occ. eigenvalues -- -101.42783 -19.17426 -14.31606 -10.33436 -10.20319
 Alpha  occ. eigenvalues --  -10.19172  -9.34187  -7.10080  -7.09902  -7.09894
 Alpha  occ. eigenvalues --   -1.08073  -0.87594  -0.75365  -0.68288  -0.55395
 Alpha  occ. eigenvalues --   -0.48507  -0.45198  -0.44688  -0.39627  -0.37486
 Alpha  occ. eigenvalues --   -0.36509  -0.31827  -0.31677  -0.28041  -0.22696
 Alpha  occ. eigenvalues --   -0.22310  -0.22283
 Alpha virt. eigenvalues --   -0.02748   0.01252   0.02833   0.04536   0.05212
 Alpha virt. eigenvalues --    0.06508   0.06774   0.07914   0.09123   0.09856
 Alpha virt. eigenvalues --    0.10334   0.10552   0.10911   0.12992   0.13647

 Mulliken charges:
               1
     1  C    0.395971
     2  O   -0.280559
     3  C   -0.645616
     4  H    0.269092
     5  H    0.262600
     6  H    0.262342
     7  Cl  -0.772704
     8  C    0.117444
     9  N   -0.608570
 Sum of Mulliken charges =  -1.00000

 Dipole moment (field-independent basis, Debye):
    X=              1.8868    Y=              7.4350    Z=             -2.7010  Tot=              8.1323
 Quadrupole moment (field-independent basis, Debye-Ang):
   XX=            -70.7162   YY=            -53.1110   ZZ=            -47.6040
   XY=              2.2880   XZ=              0.3496   YZ=             -4.9861

 Normal termination of Gaussian 16 at Wed Jan  8 01:37:33 2020.
