 Gaussian 16, Revision A.03,
 Gaussian 16:  AS64L-G16RevA.03 25-Dec-2016

 ----------------------------------------------------------------------
 #p opt=modredundant b3lyp/6-31+g(d) scrf=(smd, solvent=tetrahydrofuran
 )
 ----------------------------------------------------------------------

 -----
 title
 -----
 Symbolic Z-matrix:
 Charge = -1 Multiplicity = 1

 SCF Done:  E(RB3LYP) =  -706.372379307     A.U. after   15 cycles
 SCF Done:  E(RB3LYP) =  -706.404290333     A.U. after   13 cycles
 SCF Done:  E(RB3LYP) =  -706.428373315     A.U. after   14 cycles
 SCF Done:  E(RB3LYP) =  -706.430211887     A.U. after   12 cycles
 SCF Done:  E(RB3LYP) =  -706.430386643     A.U. after   11 cycles
 SCF Done:  E(RB3LYP) =  -706.430493249     A.U. after   12 cycles
 SCF Done:  E(RB3LYP) =  -706.430531045     A.U. after   11 cycles
 SCF Done:  E(RB3LYP) =  -706.430558145     A.U. after   11 cycles
 SCF Done:  E(RB3LYP) =  -706.430566971     A.U. after   10 cycles
 SCF Done:  E(RB3LYP) =  -706.430568417     A.U. after    9 cycles
 SCF Done:  E(RB3LYP) =  -706.430571492     A.U. after   10 cycles
 SCF Done:  E(RB3LYP) =  -706.430571942     A.U. after    9 cycles
 SCF Done:  E(RB3LYP) =  -706.430572890     A.U. after    9 cycles
 Optimization completed.
    -- Stationary point found.

                         Standard orientation:
 ---------------------------------------------------------------------
 Center     Atomic      Atomic             Coordinates (Angstroms)
 Number     Number       Type             X           Y           Z
 ---------------------------------------------------------------------
      1          6           0       -0.897489   -0.361260    0.168023
      2          8           0       -1.133171   -0.762780    1.316044
      3          6           0       -0.805634   -1.315965   -1.004984
      4          1           0       -0.214545   -0.908398   -1.827466
      5          1           0       -0.378401   -2.262347   -0.665297
      6          1           0       -1.829502   -1.498454   -1.364235
      7         17           0        2.070374    0.062244    0.056517
      8          6           0       -0.936629    0.914891   -0.076738
      9          7           0       -1.124289    2.041041   -0.307136
 ---------------------------------------------------------------------

 The electronic state is 1-A.
 Alpha  occ. eigenvalues -- -101.41745 -19.15267 -14.35564 -10.29162 -10.23323
 Alpha  occ. eigenvalues --  -10.17744  -9.33092  -7.08926  -7.08842  -7.08841
 Alpha  occ. eigenvalues --   -1.04793  -0.91852  -0.76910  -0.68053  -0.66997
 Alpha  occ. eigenvalues --   -0.48261  -0.45147  -0.44887  -0.39468  -0.38243
 Alpha  occ. eigenvalues --   -0.37571  -0.33902  -0.32823  -0.26653  -0.21613
 Alpha  occ. eigenvalues --   -0.21439  -0.21419
 Alpha virt. eigenvalues --   -0.07955   0.01635   0.02475   0.04742   0.05868
 Alpha virt. eigenvalues --    0.06808   0.08747   0.08995   0.09392   0.10417
 Alpha virt. eigenvalues --    0.10686   0.11776   0.12923   0.13523   0.14061

 Mulliken charges:
               1
     1  C    0.254116
     2  O   -0.414973
     3  C   -0.638545
     4  H    0.250756
     5  H    0.253898
     6  H    0.252339
     7  Cl  -0.879612
     8  C    0.460223
     9  N   -0.538202
 Sum of Mulliken charges =  -1.00000

 Dipole moment (field-independent basis, Debye):
    X=             -7.5783    Y=             -3.1523    Z=             -3.0629  Tot=              8.7607
 Quadrupole moment (field-independent basis, Debye-Ang):
   XX=            -66.9843   YY=            -53.6687   ZZ=            -48.9429
   XY=              2.5591   XZ=              2.6323   YZ=              4.5026

 Normal termination of Gaussian 16 at Wed Jan  8 02:20:58 2020.
