 Gaussian 16, Revision A.03,
 Gaussian 16:  AS64L-G16RevA.03 25-Dec-2016

 ----------------------------------------------------------------------
 #p opt=modredundant b3lyp/6-31+g(d) scrf=(smd, solvent=tetrahydrofuran
 )
 ----------------------------------------------------------------------

 -----
 title
 -----
 Symbolic Z-matrix:
 Charge = -1 Multiplicity = 1

 SCF Done:  E(RB3LYP) =  -706.341974750     A.U. after   14 cycles
 SCF Done:  E(RB3LYP) =  -706.379475811     A.U. after   13 cycles
 SCF Done:  E(RB3LYP) =  -706.394618172     A.U. after   13 cycles
 SCF Done:  E(RB3LYP) =  -706.402416000     A.U. after   12 cycles
 SCF Done:  E(RB3LYP) =  -706.404309499     A.U. after   11 cycles
 SCF Done:  E(RB3LYP) =  -706.404877177     A.U. after   11 cycles
 SCF Done:  E(RB3LYP) =  -706.404961316     A.U. after   10 cycles
 SCF Done:  E(RB3LYP) =  -706.405000915     A.U. after   11 cycles
 SCF Done:  E(RB3LYP) =  -706.405008312     A.U. after   10 cycles
 SCF Done:  E(RB3LYP) =  -706.405019386     A.U. after   10 cycles
 SCF Done:  E(RB3LYP) =  -706.405021433     A.U. after    9 cycles
 Optimization completed.
    -- Stationary point found.

                         Standard orientation:
 ---------------------------------------------------------------------
 Center     Atomic      Atomic             Coordinates (Angstroms)
 Number     Number       Type             X           Y           Z
 ---------------------------------------------------------------------
      1          6           0        0.471754    0.953159    0.217617
      2          8           0        0.344550    1.274976    1.319112
      3          6           0        0.225637    1.318656   -1.178979
      4          1           0       -0.067836    0.433936   -1.743249
      5          1           0       -0.559698    2.081380   -1.202181
      6          1           0        1.169054    1.712598   -1.578101
      7         17           0       -2.223318   -0.759612    0.010251
      8          6           0        1.904380   -0.703276    0.008318
      9          7           0        2.698265   -1.560793   -0.069338
 ---------------------------------------------------------------------

 The electronic state is 1-A.
 Alpha  occ. eigenvalues -- -101.41427 -19.24399 -14.30546 -10.37358 -10.22037
 Alpha  occ. eigenvalues --  -10.18566  -9.32754  -7.08555  -7.08528  -7.08523
 Alpha  occ. eigenvalues --   -1.14975  -0.86318  -0.78895  -0.66642  -0.56840
 Alpha  occ. eigenvalues --   -0.50498  -0.49525  -0.48665  -0.41440  -0.41184
 Alpha  occ. eigenvalues --   -0.38199  -0.30746  -0.30697  -0.28852  -0.21386
 Alpha  occ. eigenvalues --   -0.21228  -0.21205
 Alpha virt. eigenvalues --   -0.05259  -0.03829   0.02268   0.04418   0.04619
 Alpha virt. eigenvalues --    0.05497   0.06564   0.07217   0.08681   0.09716
 Alpha virt. eigenvalues --    0.09898   0.10097   0.10673   0.12580   0.13241

 Mulliken charges:
               1
     1  C    0.642961
     2  O   -0.198216
     3  C   -0.726412
     4  H    0.318166
     5  H    0.285626
     6  H    0.297559
     7  Cl  -0.933708
     8  C   -0.075277
     9  N   -0.610699
 Sum of Mulliken charges =  -1.00000

 Dipole moment (field-independent basis, Debye):
    X=              3.9811    Y=             10.0600    Z=             -2.9016  Tot=             11.2014
 Quadrupole moment (field-independent basis, Debye-Ang):
   XX=            -88.1332   YY=            -52.3585   ZZ=            -45.2075
   XY=              4.2988   XZ=             -0.1102   YZ=             -4.3757

 Normal termination of Gaussian 16 at Wed Jan  8 02:56:26 2020.
