 Gaussian 16, Revision A.03,
 Gaussian 16:  AS64L-G16RevA.03 25-Dec-2016

 ----------------------------------------------------------------------
 #p opt=modredundant b3lyp/6-31+g(d) scrf=(smd, solvent=tetrahydrofuran
 )
 ----------------------------------------------------------------------

 -----
 title
 -----
 Symbolic Z-matrix:
 Charge = -1 Multiplicity = 1

 SCF Done:  E(RB3LYP) =  -706.397997287     A.U. after   15 cycles
 SCF Done:  E(RB3LYP) =  -706.427269157     A.U. after   13 cycles
 SCF Done:  E(RB3LYP) =  -706.447039534     A.U. after   14 cycles
 SCF Done:  E(RB3LYP) =  -706.448660609     A.U. after   12 cycles
 SCF Done:  E(RB3LYP) =  -706.448842908     A.U. after   11 cycles
 SCF Done:  E(RB3LYP) =  -706.448940337     A.U. after   11 cycles
 SCF Done:  E(RB3LYP) =  -706.448989863     A.U. after   11 cycles
 SCF Done:  E(RB3LYP) =  -706.448995580     A.U. after   10 cycles
 SCF Done:  E(RB3LYP) =  -706.448996207     A.U. after    9 cycles
 SCF Done:  E(RB3LYP) =  -706.448996334     A.U. after    8 cycles
 SCF Done:  E(RB3LYP) =  -706.448996323     A.U. after    8 cycles
 Optimization completed.
    -- Stationary point found.

                         Standard orientation:
 ---------------------------------------------------------------------
 Center     Atomic      Atomic             Coordinates (Angstroms)
 Number     Number       Type             X           Y           Z
 ---------------------------------------------------------------------
      1          6           0       -0.782936   -0.440385    0.180048
      2          8           0       -0.992665   -0.847145    1.322263
      3          6           0       -0.694755   -1.358698   -1.016642
      4          1           0       -0.168622   -0.899496   -1.855284
      5          1           0       -0.200574   -2.288763   -0.726022
      6          1           0       -1.724258   -1.589725   -1.329658
      7         17           0        1.950752    0.150221    0.045384
      8          6           0       -0.934820    0.927517   -0.076417
      9          7           0       -1.236136    2.032971   -0.280087
 ---------------------------------------------------------------------

 The electronic state is 1-A.
 Alpha  occ. eigenvalues -- -101.42190 -19.14612 -14.34628 -10.29836 -10.23283
 Alpha  occ. eigenvalues --  -10.17600  -9.33570  -7.09428  -7.09304  -7.09300
 Alpha  occ. eigenvalues --   -1.04371  -0.90991  -0.75424  -0.67633  -0.65699
 Alpha  occ. eigenvalues --   -0.47985  -0.44216  -0.44026  -0.39247  -0.37657
 Alpha  occ. eigenvalues --   -0.36957  -0.33711  -0.32787  -0.26337  -0.22054
 Alpha  occ. eigenvalues --   -0.21833  -0.21810
 Alpha virt. eigenvalues --   -0.06069   0.02284   0.02663   0.04646   0.05839
 Alpha virt. eigenvalues --    0.06857   0.08207   0.08869   0.09485   0.10388
 Alpha virt. eigenvalues --    0.10666   0.11432   0.12868   0.13598   0.14136

 Mulliken charges:
               1
     1  C    0.245397
     2  O   -0.405995
     3  C   -0.645748
     4  H    0.248488
     5  H    0.252910
     6  H    0.249318
     7  Cl  -0.830378
     8  C    0.443087
     9  N   -0.557079
 Sum of Mulliken charges =  -1.00000

 Dipole moment (field-independent basis, Debye):
    X=             -6.2615    Y=             -3.7168    Z=             -3.0351  Tot=              7.8888
 Quadrupole moment (field-independent basis, Debye-Ang):
   XX=            -64.9082   YY=            -54.4172   ZZ=            -49.0272
   XY=              2.6826   XZ=              2.2654   YZ=              4.7592

 Normal termination of Gaussian 16 at Wed Jan  8 02:42:56 2020.
