 Gaussian 16, Revision A.03,
 Gaussian 16:  AS64L-G16RevA.03 25-Dec-2016

 ----------------------------------------------------------------------
 #p opt=modredundant b3lyp/6-31+g(d) scrf=(smd, solvent=tetrahydrofuran
 )
 ----------------------------------------------------------------------

 -----
 title
 -----
 Symbolic Z-matrix:
 Charge = -1 Multiplicity = 1

 SCF Done:  E(RB3LYP) =  -706.402764613     A.U. after   14 cycles
 SCF Done:  E(RB3LYP) =  -706.427468063     A.U. after   13 cycles
 SCF Done:  E(RB3LYP) =  -706.437432409     A.U. after   13 cycles
 SCF Done:  E(RB3LYP) =  -706.438468597     A.U. after   12 cycles
 SCF Done:  E(RB3LYP) =  -706.438617702     A.U. after   11 cycles
 SCF Done:  E(RB3LYP) =  -706.438642940     A.U. after   11 cycles
 SCF Done:  E(RB3LYP) =  -706.438647013     A.U. after    9 cycles
 Optimization completed.
    -- Stationary point found.

                         Standard orientation:
 ---------------------------------------------------------------------
 Center     Atomic      Atomic             Coordinates (Angstroms)
 Number     Number       Type             X           Y           Z
 ---------------------------------------------------------------------
      1          6           0        0.346740    0.713279    0.217193
      2          8           0        0.340926    1.149929    1.341923
      3          6           0        0.106443    1.474990   -1.054490
      4          1           0       -0.052432    0.812255   -1.904935
      5          1           0       -0.753664    2.137203   -0.924734
      6          1           0        1.001999    2.087550   -1.237101
      7         17           0       -1.663369   -0.756749   -0.002997
      8          6           0        1.329382   -0.646768   -0.056097
      9          7           0        2.094081   -1.517245   -0.179615
 ---------------------------------------------------------------------

 The electronic state is 1-A.
 Alpha  occ. eigenvalues -- -101.43100 -19.14416 -14.32685 -10.31656 -10.21871
 Alpha  occ. eigenvalues --  -10.17968  -9.34547  -7.10457  -7.10248  -7.10236
 Alpha  occ. eigenvalues --   -1.04872  -0.88868  -0.74357  -0.68735  -0.58062
 Alpha  occ. eigenvalues --   -0.47734  -0.43532  -0.43316  -0.39195  -0.36468
 Alpha  occ. eigenvalues --   -0.36072  -0.32661  -0.32576  -0.26612  -0.22922
 Alpha  occ. eigenvalues --   -0.22577  -0.22483
 Alpha virt. eigenvalues --   -0.02368   0.02410   0.03712   0.04070   0.05520
 Alpha virt. eigenvalues --    0.06869   0.06988   0.08624   0.09716   0.10123
 Alpha virt. eigenvalues --    0.10557   0.10775   0.11869   0.13487   0.13850

 Mulliken charges:
               1
     1  C    0.296281
     2  O   -0.354326
     3  C   -0.636877
     4  H    0.251136
     5  H    0.253911
     6  H    0.248561
     7  Cl  -0.728405
     8  C    0.272252
     9  N   -0.602532
 Sum of Mulliken charges =  -1.00000

 Dipole moment (field-independent basis, Debye):
    X=              2.4671    Y=              5.8701    Z=             -2.8906  Tot=              6.9928
 Quadrupole moment (field-independent basis, Debye-Ang):
   XX=            -65.8887   YY=            -53.8008   ZZ=            -48.7298
   XY=              2.0674   XZ=             -0.0412   YZ=             -5.2373

 Normal termination of Gaussian 16 at Wed Jan  8 01:19:35 2020.
