 Gaussian 16, Revision A.03,
 Gaussian 16:  AS64L-G16RevA.03 25-Dec-2016

 ----------------------------------------------------------------------
 #p opt=modredundant b3lyp/6-31+g(d) scrf=(smd, solvent=tetrahydrofuran
 )
 ----------------------------------------------------------------------

 -----
 title
 -----
 Symbolic Z-matrix:
 Charge = -1 Multiplicity = 1

 SCF Done:  E(RB3LYP) =  -706.384351081     A.U. after   14 cycles
 SCF Done:  E(RB3LYP) =  -706.393929925     A.U. after   13 cycles
 SCF Done:  E(RB3LYP) =  -706.394328472     A.U. after   12 cycles
 SCF Done:  E(RB3LYP) =  -706.394457245     A.U. after   11 cycles
 SCF Done:  E(RB3LYP) =  -706.394476829     A.U. after   11 cycles
 SCF Done:  E(RB3LYP) =  -706.394480185     A.U. after   10 cycles
 SCF Done:  E(RB3LYP) =  -706.394480427     A.U. after    9 cycles
 Optimization completed.
    -- Stationary point found.

                         Standard orientation:
 ---------------------------------------------------------------------
 Center     Atomic      Atomic             Coordinates (Angstroms)
 Number     Number       Type             X           Y           Z
 ---------------------------------------------------------------------
      1          6           0        0.139390    0.366529    0.198058
      2          8           0        0.188639    0.837017    1.418227
      3          6           0       -0.034830    1.455591   -0.908957
      4          1           0       -0.124604    1.037271   -1.917770
      5          1           0       -0.931470    2.034826   -0.669752
      6          1           0        0.837562    2.119178   -0.870938
      7         17           0       -1.372309   -0.751003   -0.077419
      8          6           0        1.135361   -0.426285   -0.065546
      9          7           0        2.085589   -1.070766   -0.273224
 ---------------------------------------------------------------------

 The electronic state is 1-A.
 Alpha  occ. eigenvalues -- -101.48370 -19.05863 -14.31983 -10.25839 -10.20767
 Alpha  occ. eigenvalues --  -10.15979  -9.40144  -7.16338  -7.15657  -7.15627
 Alpha  occ. eigenvalues --   -0.96468  -0.88525  -0.78846  -0.71014  -0.65027
 Alpha  occ. eigenvalues --   -0.45646  -0.43020  -0.40613  -0.36906  -0.36509
 Alpha  occ. eigenvalues --   -0.35334  -0.31275  -0.30822  -0.26922  -0.26423
 Alpha  occ. eigenvalues --   -0.20974  -0.19737
 Alpha virt. eigenvalues --   -0.00024   0.02710   0.03977   0.05155   0.06013
 Alpha virt. eigenvalues --    0.07314   0.08025   0.09477   0.09810   0.10198
 Alpha virt. eigenvalues --    0.10594   0.11588   0.13942   0.14083   0.14673

 Mulliken charges:
               1
     1  C   -0.146645
     2  O   -0.603066
     3  C   -0.590364
     4  H    0.217478
     5  H    0.230562
     6  H    0.219825
     7  Cl  -0.221109
     8  C    0.579025
     9  N   -0.685706
 Sum of Mulliken charges =  -1.00000

 Dipole moment (field-independent basis, Debye):
    X=             -1.6860    Y=              1.8884    Z=             -3.9294  Tot=              4.6742
 Quadrupole moment (field-independent basis, Debye-Ang):
   XX=            -58.9954   YY=            -51.0414   ZZ=            -52.6520
   XY=              3.1502   XZ=              0.3049   YZ=             -5.4429

 Normal termination of Gaussian 16 at Tue Jan  7 23:54:12 2020.
