 Gaussian 16, Revision A.03,
 Gaussian 16:  AS64L-G16RevA.03 25-Dec-2016

 ----------------------------------------------------------------------
 #p opt=modredundant b3lyp/6-31+g(d) scrf=(smd, solvent=tetrahydrofuran
 )
 ----------------------------------------------------------------------

 -----
 title
 -----
 Symbolic Z-matrix:
 Charge = -1 Multiplicity = 1

 SCF Done:  E(RB3LYP) =  -706.344130532     A.U. after   15 cycles
 SCF Done:  E(RB3LYP) =  -706.380804572     A.U. after   13 cycles
 SCF Done:  E(RB3LYP) =  -706.391738792     A.U. after   12 cycles
 SCF Done:  E(RB3LYP) =  -706.396242841     A.U. after   11 cycles
 SCF Done:  E(RB3LYP) =  -706.396863110     A.U. after   11 cycles
 SCF Done:  E(RB3LYP) =  -706.396909414     A.U. after   11 cycles
 SCF Done:  E(RB3LYP) =  -706.396924660     A.U. after   10 cycles
 SCF Done:  E(RB3LYP) =  -706.396932473     A.U. after   10 cycles
 SCF Done:  E(RB3LYP) =  -706.396936478     A.U. after    9 cycles
 SCF Done:  E(RB3LYP) =  -706.396936898     A.U. after    9 cycles
 SCF Done:  E(RB3LYP) =  -706.396937181     A.U. after    9 cycles
 SCF Done:  E(RB3LYP) =  -706.396937100     A.U. after    8 cycles
 SCF Done:  E(RB3LYP) =  -706.396936982     A.U. after    8 cycles
 Optimization completed.
    -- Stationary point found.

                         Standard orientation:
 ---------------------------------------------------------------------
 Center     Atomic      Atomic             Coordinates (Angstroms)
 Number     Number       Type             X           Y           Z
 ---------------------------------------------------------------------
      1          6           0       -0.002801    0.919828    0.242738
      2          8           0       -0.042095    1.197028    1.357383
      3          6           0       -0.040601    1.339819   -1.159205
      4          1           0        0.021860    0.483503   -1.824777
      5          1           0       -0.983440    1.880222   -1.306849
      6          1           0        0.818079    2.007538   -1.306858
      7         17           0       -1.916758   -0.964508   -0.033025
      8          6           0        2.027652   -0.517896   -0.002642
      9          7           0        3.022807   -1.143051   -0.049215
 ---------------------------------------------------------------------

 The electronic state is 1-A.
 Alpha  occ. eigenvalues -- -101.43743 -19.25066 -14.27979 -10.37695 -10.22494
 Alpha  occ. eigenvalues --  -10.15086  -9.35095  -7.11017  -7.10802  -7.10794
 Alpha  occ. eigenvalues --   -1.15657  -0.83661  -0.79190  -0.69003  -0.56842
 Alpha  occ. eigenvalues --   -0.49952  -0.49604  -0.48854  -0.41743  -0.41422
 Alpha  occ. eigenvalues --   -0.36726  -0.28428  -0.28394  -0.26015  -0.23763
 Alpha  occ. eigenvalues --   -0.23046  -0.23033
 Alpha virt. eigenvalues --   -0.06433  -0.03162   0.02411   0.04804   0.05051
 Alpha virt. eigenvalues --    0.05350   0.07332   0.07853   0.08708   0.09806
 Alpha virt. eigenvalues --    0.09965   0.10705   0.11084   0.12607   0.13386

 Mulliken charges:
               1
     1  C    0.431974
     2  O   -0.142910
     3  C   -0.599293
     4  H    0.319106
     5  H    0.296009
     6  H    0.297988
     7  Cl  -0.763146
     8  C   -0.193073
     9  N   -0.646654
 Sum of Mulliken charges =  -1.00000

 Dipole moment (field-independent basis, Debye):
    X=             -2.6128    Y=             10.2087    Z=             -2.6111  Tot=             10.8564
 Quadrupole moment (field-independent basis, Debye-Ang):
   XX=            -89.5701   YY=            -49.8478   ZZ=            -44.9481
   XY=              3.5001   XZ=              0.3918   YZ=             -4.2276

 Normal termination of Gaussian 16 at Wed Jan  8 02:41:54 2020.
