 Gaussian 16, Revision A.03,
 Gaussian 16:  AS64L-G16RevA.03 25-Dec-2016

 ----------------------------------------------------------------------
 #p opt=modredundant b3lyp/6-31+g(d) scrf=(smd, solvent=tetrahydrofuran
 )
 ----------------------------------------------------------------------

 -----
 title
 -----
 Symbolic Z-matrix:
 Charge = -1 Multiplicity = 1

 SCF Done:  E(RB3LYP) =  -706.374016617     A.U. after   14 cycles
 SCF Done:  E(RB3LYP) =  -706.401848848     A.U. after   13 cycles
 SCF Done:  E(RB3LYP) =  -706.406302532     A.U. after   12 cycles
 SCF Done:  E(RB3LYP) =  -706.407322455     A.U. after   12 cycles
 SCF Done:  E(RB3LYP) =  -706.407357229     A.U. after   10 cycles
 SCF Done:  E(RB3LYP) =  -706.407367554     A.U. after   10 cycles
 SCF Done:  E(RB3LYP) =  -706.407383587     A.U. after   11 cycles
 SCF Done:  E(RB3LYP) =  -706.407390114     A.U. after   11 cycles
 SCF Done:  E(RB3LYP) =  -706.407391313     A.U. after    9 cycles
 SCF Done:  E(RB3LYP) =  -706.407390938     A.U. after    9 cycles
 SCF Done:  E(RB3LYP) =  -706.407391430     A.U. after    9 cycles
 SCF Done:  E(RB3LYP) =  -706.407392412     A.U. after    9 cycles
 SCF Done:  E(RB3LYP) =  -706.407394267     A.U. after    9 cycles
 SCF Done:  E(RB3LYP) =  -706.407395357     A.U. after    9 cycles
 Optimization completed.
    -- Stationary point found.

                         Standard orientation:
 ---------------------------------------------------------------------
 Center     Atomic      Atomic             Coordinates (Angstroms)
 Number     Number       Type             X           Y           Z
 ---------------------------------------------------------------------
      1          6           0       -0.297983    0.728492    0.252691
      2          8           0       -0.332766    1.084102    1.370403
      3          6           0       -0.287041    1.412581   -1.070121
      4          1           0       -0.036858    0.724505   -1.873250
      5          1           0       -1.291890    1.824730   -1.229107
      6          1           0        0.443081    2.227186   -1.018810
      7         17           0       -1.443631   -1.118456   -0.088295
      8          6           0        1.857736   -0.289223   -0.025031
      9          7           0        2.921894   -0.792369   -0.040896
 ---------------------------------------------------------------------

 The electronic state is 1-A.
 Alpha  occ. eigenvalues -- -101.47536 -19.18969 -14.27317 -10.34040 -10.19849
 Alpha  occ. eigenvalues --  -10.14234  -9.39012  -7.15138  -7.14597  -7.14578
 Alpha  occ. eigenvalues --   -1.09708  -0.83018  -0.76617  -0.72736  -0.53769
 Alpha  occ. eigenvalues --   -0.46311  -0.46107  -0.45940  -0.38637  -0.38490
 Alpha  occ. eigenvalues --   -0.35747  -0.28096  -0.27798  -0.26995  -0.26414
 Alpha  occ. eigenvalues --   -0.25874  -0.24244
 Alpha virt. eigenvalues --   -0.03582   0.00140   0.03074   0.05033   0.05617
 Alpha virt. eigenvalues --    0.05822   0.07948   0.08531   0.09009   0.09818
 Alpha virt. eigenvalues --    0.10451   0.10896   0.11119   0.12922   0.13576

 Mulliken charges:
               1
     1  C    0.162686
     2  O   -0.203750
     3  C   -0.539318
     4  H    0.279278
     5  H    0.265806
     6  H    0.267260
     7  Cl  -0.412807
     8  C   -0.152337
     9  N   -0.666816
 Sum of Mulliken charges =  -1.00000

 Dipole moment (field-independent basis, Debye):
    X=             -6.3398    Y=              6.5337    Z=             -2.5210  Tot=              9.4465
 Quadrupole moment (field-independent basis, Debye-Ang):
   XX=            -78.9425   YY=            -48.9079   ZZ=            -47.0556
   XY=              2.9896   XZ=              1.1388   YZ=             -4.2160

 Normal termination of Gaussian 16 at Wed Jan  8 00:53:36 2020.
