 Gaussian 16, Revision A.03,
 Gaussian 16:  AS64L-G16RevA.03 25-Dec-2016

 ----------------------------------------------------------------------
 #p opt=modredundant b3lyp/6-31+g(d) scrf=(smd, solvent=tetrahydrofuran
 )
 ----------------------------------------------------------------------

 -----
 title
 -----
 Symbolic Z-matrix:
 Charge = -1 Multiplicity = 1

 SCF Done:  E(RB3LYP) =  -706.364483742     A.U. after   14 cycles
 SCF Done:  E(RB3LYP) =  -706.382955942     A.U. after   12 cycles
 SCF Done:  E(RB3LYP) =  -706.385287645     A.U. after   12 cycles
 SCF Done:  E(RB3LYP) =  -706.385490386     A.U. after   11 cycles
 SCF Done:  E(RB3LYP) =  -706.385519560     A.U. after   10 cycles
 SCF Done:  E(RB3LYP) =  -706.385563757     A.U. after   11 cycles
 SCF Done:  E(RB3LYP) =  -706.385604024     A.U. after   11 cycles
 SCF Done:  E(RB3LYP) =  -706.385624623     A.U. after   10 cycles
 SCF Done:  E(RB3LYP) =  -706.385631499     A.U. after   11 cycles
 SCF Done:  E(RB3LYP) =  -706.385636169     A.U. after   10 cycles
 SCF Done:  E(RB3LYP) =  -706.385634941     A.U. after   10 cycles
 SCF Done:  E(RB3LYP) =  -706.385634650     A.U. after    9 cycles
 Optimization completed.
    -- Stationary point found.

                         Standard orientation:
 ---------------------------------------------------------------------
 Center     Atomic      Atomic             Coordinates (Angstroms)
 Number     Number       Type             X           Y           Z
 ---------------------------------------------------------------------
      1          6           0       -0.514842    0.366102    0.249719
      2          8           0       -0.402322    0.638321    1.439116
      3          6           0       -0.506753    1.458272   -0.809175
      4          1           0       -0.246440    1.080382   -1.799351
      5          1           0       -1.522432    1.880869   -0.847272
      6          1           0        0.190562    2.244535   -0.513711
      7         17           0       -1.176783   -1.017963   -0.204369
      8          6           0        1.762760   -0.211360   -0.239227
      9          7           0        2.907887   -0.383582   -0.012318
 ---------------------------------------------------------------------

 The electronic state is 1-A.
 Alpha  occ. eigenvalues -- -101.53919 -19.11919 -14.26074 -10.30143 -10.16917
 Alpha  occ. eigenvalues --  -10.12448  -9.45974  -7.22268  -7.21440  -7.21321
 Alpha  occ. eigenvalues --   -1.03375  -0.87482  -0.81720  -0.71410  -0.54029
 Alpha  occ. eigenvalues --   -0.45546  -0.44847  -0.43334  -0.37945  -0.36474
 Alpha  occ. eigenvalues --   -0.34561  -0.30379  -0.30085  -0.26650  -0.26392
 Alpha  occ. eigenvalues --   -0.24810  -0.22731
 Alpha virt. eigenvalues --   -0.00610   0.03017   0.04930   0.05773   0.06204
 Alpha virt. eigenvalues --    0.07055   0.08603   0.09225   0.09318   0.09566
 Alpha virt. eigenvalues --    0.10950   0.11167   0.12265   0.13660   0.13798

 Mulliken charges:
               1
     1  C   -0.438115
     2  O   -0.346965
     3  C   -0.368533
     4  H    0.239823
     5  H    0.231607
     6  H    0.245355
     7  Cl   0.295604
     8  C   -0.186427
     9  N   -0.672351
 Sum of Mulliken charges =  -1.00000

 Dipole moment (field-independent basis, Debye):
    X=             -9.8019    Y=              1.7823    Z=             -2.8332  Tot=             10.3576
 Quadrupole moment (field-independent basis, Debye-Ang):
   XX=            -75.2721   YY=            -45.2541   ZZ=            -50.5775
   XY=              3.4223   XZ=              1.9865   YZ=             -2.7820

 Normal termination of Gaussian 16 at Tue Jan  7 23:10:56 2020.
