 Gaussian 16, Revision A.03,
 Gaussian 16:  AS64L-G16RevA.03 25-Dec-2016

 ----------------------------------------------------------------------
 #p opt=modredundant b3lyp/6-31+g(d) scrf=(smd, solvent=tetrahydrofuran
 )
 ----------------------------------------------------------------------

 -----
 title
 -----
 Symbolic Z-matrix:
 Charge = -1 Multiplicity = 1

 SCF Done:  E(RB3LYP) =  -706.376786128     A.U. after   14 cycles
 SCF Done:  E(RB3LYP) =  -706.403095645     A.U. after   12 cycles
 SCF Done:  E(RB3LYP) =  -706.407483890     A.U. after   12 cycles
 SCF Done:  E(RB3LYP) =  -706.408399243     A.U. after   12 cycles
 SCF Done:  E(RB3LYP) =  -706.408511088     A.U. after   11 cycles
 SCF Done:  E(RB3LYP) =  -706.408595213     A.U. after   11 cycles
 SCF Done:  E(RB3LYP) =  -706.408605493     A.U. after   10 cycles
 SCF Done:  E(RB3LYP) =  -706.408610536     A.U. after   10 cycles
 SCF Done:  E(RB3LYP) =  -706.408613381     A.U. after   10 cycles
 SCF Done:  E(RB3LYP) =  -706.408613927     A.U. after    9 cycles
 SCF Done:  E(RB3LYP) =  -706.408613697     A.U. after    9 cycles
 Optimization completed.
    -- Stationary point found.

                         Standard orientation:
 ---------------------------------------------------------------------
 Center     Atomic      Atomic             Coordinates (Angstroms)
 Number     Number       Type             X           Y           Z
 ---------------------------------------------------------------------
      1          6           0       -0.138933    0.759291    0.249912
      2          8           0       -0.215796    1.137826    1.361761
      3          6           0       -0.227720    1.421678   -1.083587
      4          1           0       -0.059642    0.713932   -1.891477
      5          1           0       -1.225357    1.867519   -1.171017
      6          1           0        0.532544    2.211797   -1.106464
      7         17           0       -1.478134   -1.083772   -0.065774
      8          6           0        1.744820   -0.343959   -0.022699
      9          7           0        2.762585   -0.927685   -0.066963
 ---------------------------------------------------------------------

 The electronic state is 1-A.
 Alpha  occ. eigenvalues -- -101.45817 -19.18134 -14.28678 -10.33697 -10.19584
 Alpha  occ. eigenvalues --  -10.16191  -9.37275  -7.13329  -7.12897  -7.12888
 Alpha  occ. eigenvalues --   -1.08868  -0.84482  -0.75824  -0.71270  -0.53591
 Alpha  occ. eigenvalues --   -0.46725  -0.45542  -0.45269  -0.38650  -0.38084
 Alpha  occ. eigenvalues --   -0.35990  -0.29229  -0.29032  -0.26595  -0.25360
 Alpha  occ. eigenvalues --   -0.24584  -0.24260
 Alpha virt. eigenvalues --   -0.03368   0.00804   0.03053   0.05116   0.05574
 Alpha virt. eigenvalues --    0.06014   0.07516   0.08147   0.09050   0.09969
 Alpha virt. eigenvalues --    0.10469   0.10564   0.11030   0.12894   0.13623

 Mulliken charges:
               1
     1  C    0.258720
     2  O   -0.226562
     3  C   -0.569105
     4  H    0.273780
     5  H    0.262804
     6  H    0.263660
     7  Cl  -0.536219
     8  C   -0.070537
     9  N   -0.656540
 Sum of Mulliken charges =  -1.00000

 Dipole moment (field-independent basis, Debye):
    X=             -3.7334    Y=              6.9146    Z=             -2.5562  Tot=              8.2634
 Quadrupole moment (field-independent basis, Debye-Ang):
   XX=            -75.1397   YY=            -50.3711   ZZ=            -47.2407
   XY=              2.6110   XZ=              1.0915   YZ=             -4.4937

 Normal termination of Gaussian 16 at Wed Jan  8 01:06:49 2020.
