 Gaussian 16, Revision A.03,
 Gaussian 16:  AS64L-G16RevA.03 25-Dec-2016

 ----------------------------------------------------------------------
 #p opt=modredundant b3lyp/6-31+g(d) scrf=(smd, solvent=tetrahydrofuran
 )
 ----------------------------------------------------------------------

 -----
 title
 -----
 Symbolic Z-matrix:
 Charge = -1 Multiplicity = 1

 SCF Done:  E(RB3LYP) =  -706.385815783     A.U. after   13 cycles
 SCF Done:  E(RB3LYP) =  -706.406944969     A.U. after   12 cycles
 SCF Done:  E(RB3LYP) =  -706.409709373     A.U. after   12 cycles
 SCF Done:  E(RB3LYP) =  -706.410120176     A.U. after   12 cycles
 SCF Done:  E(RB3LYP) =  -706.410152130     A.U. after   11 cycles
 SCF Done:  E(RB3LYP) =  -706.410177708     A.U. after   11 cycles
 SCF Done:  E(RB3LYP) =  -706.410179624     A.U. after   10 cycles
 SCF Done:  E(RB3LYP) =  -706.410185530     A.U. after    9 cycles
 SCF Done:  E(RB3LYP) =  -706.410188381     A.U. after    9 cycles
 SCF Done:  E(RB3LYP) =  -706.410190207     A.U. after    9 cycles
 SCF Done:  E(RB3LYP) =  -706.410191748     A.U. after    9 cycles
 Optimization completed.
    -- Stationary point found.

                         Standard orientation:
 ---------------------------------------------------------------------
 Center     Atomic      Atomic             Coordinates (Angstroms)
 Number     Number       Type             X           Y           Z
 ---------------------------------------------------------------------
      1          6           0       -0.255944    0.655544    0.251681
      2          8           0       -0.326358    1.039961    1.374121
      3          6           0       -0.318971    1.418727   -1.038424
      4          1           0       -0.080982    0.787359   -1.892300
      5          1           0       -1.336929    1.815383   -1.141068
      6          1           0        0.390150    2.251011   -0.973927
      7         17           0       -1.341380   -1.108177   -0.096340
      8          6           0        1.719074   -0.269322   -0.038023
      9          7           0        2.796735   -0.737733   -0.057042
 ---------------------------------------------------------------------

 The electronic state is 1-A.
 Alpha  occ. eigenvalues -- -101.47764 -19.15784 -14.28132 -10.32515 -10.18674
 Alpha  occ. eigenvalues --  -10.15400  -9.39310  -7.15459  -7.14871  -7.14856
 Alpha  occ. eigenvalues --   -1.06619  -0.83930  -0.76353  -0.72375  -0.52784
 Alpha  occ. eigenvalues --   -0.45696  -0.44717  -0.44092  -0.37849  -0.37414
 Alpha  occ. eigenvalues --   -0.35250  -0.28960  -0.28532  -0.26733  -0.26659
 Alpha  occ. eigenvalues --   -0.25635  -0.24473
 Alpha virt. eigenvalues --   -0.01871   0.01710   0.03418   0.05185   0.05871
 Alpha virt. eigenvalues --    0.06220   0.07855   0.08423   0.09128   0.09921
 Alpha virt. eigenvalues --    0.10592   0.10675   0.11190   0.13033   0.13703

 Mulliken charges:
               1
     1  C    0.129027
     2  O   -0.263570
     3  C   -0.541085
     4  H    0.261190
     5  H    0.252326
     6  H    0.254454
     7  Cl  -0.349708
     8  C   -0.069471
     9  N   -0.673162
 Sum of Mulliken charges =  -1.00000

 Dipole moment (field-independent basis, Debye):
    X=             -5.3350    Y=              5.2124    Z=             -2.6428  Tot=              7.9130
 Quadrupole moment (field-independent basis, Debye-Ang):
   XX=            -74.0042   YY=            -49.2392   ZZ=            -48.1278
   XY=              2.8064   XZ=              1.4149   YZ=             -4.3161

 Normal termination of Gaussian 16 at Wed Jan  8 00:38:23 2020.
