 Gaussian 16, Revision A.03,
 Gaussian 16:  AS64L-G16RevA.03 25-Dec-2016

 ----------------------------------------------------------------------
 #p opt=modredundant b3lyp/6-31+g(d) scrf=(smd, solvent=tetrahydrofuran
 )
 ----------------------------------------------------------------------

 -----
 title
 -----
 Symbolic Z-matrix:
 Charge = -1 Multiplicity = 1

 SCF Done:  E(RB3LYP) =  -706.368222464     A.U. after   15 cycles
 SCF Done:  E(RB3LYP) =  -706.401860672     A.U. after   13 cycles
 SCF Done:  E(RB3LYP) =  -706.418503821     A.U. after   13 cycles
 SCF Done:  E(RB3LYP) =  -706.424605527     A.U. after   12 cycles
 SCF Done:  E(RB3LYP) =  -706.425404314     A.U. after   11 cycles
 SCF Done:  E(RB3LYP) =  -706.425574259     A.U. after   11 cycles
 SCF Done:  E(RB3LYP) =  -706.425611163     A.U. after   11 cycles
 SCF Done:  E(RB3LYP) =  -706.425618526     A.U. after   10 cycles
 SCF Done:  E(RB3LYP) =  -706.425620217     A.U. after    9 cycles
 SCF Done:  E(RB3LYP) =  -706.425620691     A.U. after    8 cycles
 SCF Done:  E(RB3LYP) =  -706.425620976     A.U. after    7 cycles
 Optimization completed.
    -- Stationary point found.

                         Standard orientation:
 ---------------------------------------------------------------------
 Center     Atomic      Atomic             Coordinates (Angstroms)
 Number     Number       Type             X           Y           Z
 ---------------------------------------------------------------------
      1          6           0        0.635360    0.826626    0.212829
      2          8           0        0.594844    1.216064    1.321683
      3          6           0        0.363952    1.408589   -1.119915
      4          1           0       -0.075124    0.659824   -1.778613
      5          1           0       -0.299820    2.270552   -1.010880
      6          1           0        1.331230    1.727814   -1.533442
      7         17           0       -2.113154   -0.594111    0.020012
      8          6           0        1.530453   -0.830731   -0.036120
      9          7           0        2.147143   -1.816245   -0.133072
 ---------------------------------------------------------------------

 The electronic state is 1-A.
 Alpha  occ. eigenvalues -- -101.41328 -19.20128 -14.32593 -10.34915 -10.21346
 Alpha  occ. eigenvalues --  -10.20084  -9.32662  -7.08467  -7.08432  -7.08428
 Alpha  occ. eigenvalues --   -1.10676  -0.88508  -0.76733  -0.66574  -0.56713
 Alpha  occ. eigenvalues --   -0.50194  -0.46956  -0.46146  -0.40583  -0.38950
 Alpha  occ. eigenvalues --   -0.37545  -0.32627  -0.32516  -0.29592  -0.21251
 Alpha  occ. eigenvalues --   -0.21128  -0.21106
 Alpha virt. eigenvalues --   -0.04192   0.00007   0.02527   0.03796   0.04940
 Alpha virt. eigenvalues --    0.06248   0.06490   0.07382   0.08939   0.09623
 Alpha virt. eigenvalues --    0.09993   0.10329   0.10656   0.12829   0.13338

 Mulliken charges:
               1
     1  C    0.579849
     2  O   -0.273910
     3  C   -0.740863
     4  H    0.289568
     5  H    0.266791
     6  H    0.277688
     7  Cl  -0.924795
     8  C    0.106334
     9  N   -0.580663
 Sum of Mulliken charges =  -1.00000

 Dipole moment (field-independent basis, Debye):
    X=              6.0603    Y=              7.8912    Z=             -2.8668  Tot=             10.3545
 Quadrupole moment (field-independent basis, Debye-Ang):
   XX=            -76.2017   YY=            -54.1141   ZZ=            -46.8210
   XY=              3.6590   XZ=             -0.5694   YZ=             -4.8873

 Normal termination of Gaussian 16 at Wed Jan  8 02:41:05 2020.
