 Gaussian 16, Revision A.03,
 Gaussian 16:  AS64L-G16RevA.03 25-Dec-2016

 ----------------------------------------------------------------------
 #p opt=modredundant b3lyp/6-31+g(d) scrf=(smd, solvent=tetrahydrofuran
 )
 ----------------------------------------------------------------------

 -----
 title
 -----
 Symbolic Z-matrix:
 Charge = -1 Multiplicity = 1

 SCF Done:  E(RB3LYP) =  -706.382806944     A.U. after   14 cycles
 SCF Done:  E(RB3LYP) =  -706.406880021     A.U. after   12 cycles
 SCF Done:  E(RB3LYP) =  -706.411507937     A.U. after   12 cycles
 SCF Done:  E(RB3LYP) =  -706.411927246     A.U. after   11 cycles
 SCF Done:  E(RB3LYP) =  -706.412020606     A.U. after   10 cycles
 SCF Done:  E(RB3LYP) =  -706.412028935     A.U. after   10 cycles
 SCF Done:  E(RB3LYP) =  -706.412036434     A.U. after   10 cycles
 SCF Done:  E(RB3LYP) =  -706.412041862     A.U. after   10 cycles
 SCF Done:  E(RB3LYP) =  -706.412061470     A.U. after   11 cycles
 SCF Done:  E(RB3LYP) =  -706.375488993     A.U. after   13 cycles
 SCF Done:  E(RB3LYP) =  -706.410095401     A.U. after   13 cycles
 SCF Done:  E(RB3LYP) =  -706.412084504     A.U. after   11 cycles
 SCF Done:  E(RB3LYP) =  -706.412109860     A.U. after    8 cycles
 SCF Done:  E(RB3LYP) =  -706.412120571     A.U. after   11 cycles
 SCF Done:  E(RB3LYP) =  -706.412137327     A.U. after   10 cycles
 SCF Done:  E(RB3LYP) =  -706.412136774     A.U. after   10 cycles
 SCF Done:  E(RB3LYP) =  -706.412139195     A.U. after    9 cycles
 SCF Done:  E(RB3LYP) =  -706.412140465     A.U. after    8 cycles
 SCF Done:  E(RB3LYP) =  -706.412141455     A.U. after    8 cycles
 SCF Done:  E(RB3LYP) =  -706.412142659     A.U. after    8 cycles
 Optimization completed.
    -- Stationary point found.

                         Standard orientation:
 ---------------------------------------------------------------------
 Center     Atomic      Atomic             Coordinates (Angstroms)
 Number     Number       Type             X           Y           Z
 ---------------------------------------------------------------------
      1          6           0       -0.524357    0.495487    0.272641
      2          8           0       -0.361469    0.750154    1.431997
      3          6           0       -0.506094    1.464815   -0.876272
      4          1           0       -0.216915    0.984497   -1.810424
      5          1           0       -1.525877    1.862887   -0.980868
      6          1           0        0.177697    2.283893   -0.642722
      7         17           0       -1.300859   -1.068360   -0.164882
      8          6           0        1.913181   -0.234230   -0.262075
      9          7           0        3.039295   -0.475262   -0.003534
 ---------------------------------------------------------------------

 The electronic state is 1-A.
 Alpha  occ. eigenvalues -- -101.52539 -19.15417 -14.25954 -10.32069 -10.18204
 Alpha  occ. eigenvalues --  -10.12345  -9.44261  -7.20545  -7.19758  -7.19677
 Alpha  occ. eigenvalues --   -1.06313  -0.82856  -0.81560  -0.72911  -0.53531
 Alpha  occ. eigenvalues --   -0.46251  -0.44770  -0.44372  -0.38605  -0.36849
 Alpha  occ. eigenvalues --   -0.34820  -0.30352  -0.30006  -0.27055  -0.26530
 Alpha  occ. eigenvalues --   -0.26454  -0.23008
 Alpha virt. eigenvalues --   -0.01419   0.02398   0.04107   0.05002   0.05633
 Alpha virt. eigenvalues --    0.06188   0.08500   0.08823   0.09205   0.09588
 Alpha virt. eigenvalues --    0.11000   0.11264   0.11472   0.13317   0.13618

 Mulliken charges:
               1
     1  C   -0.255511
     2  O   -0.268927
     3  C   -0.444685
     4  H    0.261167
     5  H    0.249527
     6  H    0.254995
     7  Cl   0.081941
     8  C   -0.222652
     9  N   -0.655856
 Sum of Mulliken charges =  -1.00000

 Dipole moment (field-independent basis, Debye):
    X=            -10.3437    Y=              3.4375    Z=             -2.3153  Tot=             11.1431
 Quadrupole moment (field-independent basis, Debye-Ang):
   XX=            -79.6206   YY=            -45.6520   ZZ=            -49.3183
   XY=              3.1431   XZ=              1.6633   YZ=             -3.1628

 Normal termination of Gaussian 16 at Wed Jan  8 00:11:45 2020.
