 Gaussian 16, Revision A.03,
 Gaussian 16:  AS64L-G16RevA.03 25-Dec-2016

 ----------------------------------------------------------------------
 #p opt=modredundant b3lyp/6-31+g(d) scrf=(smd, solvent=tetrahydrofuran
 )
 ----------------------------------------------------------------------

 -----
 title
 -----
 Symbolic Z-matrix:
 Charge = -1 Multiplicity = 1

 SCF Done:  E(RB3LYP) =  -706.323987617     A.U. after   15 cycles
 SCF Done:  E(RB3LYP) =  -706.356989917     A.U. after   14 cycles
 SCF Done:  E(RB3LYP) =  -706.382104775     A.U. after   15 cycles
 SCF Done:  E(RB3LYP) =  -706.383837839     A.U. after   12 cycles
 SCF Done:  E(RB3LYP) =  -706.384005658     A.U. after   12 cycles
 SCF Done:  E(RB3LYP) =  -706.384089328     A.U. after   12 cycles
 SCF Done:  E(RB3LYP) =  -706.384147739     A.U. after   12 cycles
 SCF Done:  E(RB3LYP) =  -706.384175340     A.U. after   11 cycles
 SCF Done:  E(RB3LYP) =  -706.384182911     A.U. after   10 cycles
 SCF Done:  E(RB3LYP) =  -706.384184012     A.U. after   10 cycles
 SCF Done:  E(RB3LYP) =  -706.384184272     A.U. after    9 cycles
 SCF Done:  E(RB3LYP) =  -706.384184371     A.U. after    9 cycles
 Optimization completed.
    -- Stationary point found.

                         Standard orientation:
 ---------------------------------------------------------------------
 Center     Atomic      Atomic             Coordinates (Angstroms)
 Number     Number       Type             X           Y           Z
 ---------------------------------------------------------------------
      1          6           0       -0.903226   -0.309274    0.163156
      2          8           0       -1.144546   -0.725207    1.317368
      3          6           0       -0.813263   -1.295315   -0.996407
      4          1           0       -0.251909   -0.896137   -1.843603
      5          1           0       -0.351726   -2.218637   -0.639470
      6          1           0       -1.840474   -1.513007   -1.323399
      7         17           0        2.072980    0.052774    0.057707
      8          6           0       -0.933860    0.867017   -0.072219
      9          7           0       -1.105441    1.993957   -0.325810
 ---------------------------------------------------------------------

 The electronic state is 1-A.
 Alpha  occ. eigenvalues -- -101.41757 -19.15154 -14.35928 -10.27907 -10.22762
 Alpha  occ. eigenvalues --  -10.17711  -9.33105  -7.08942  -7.08854  -7.08853
 Alpha  occ. eigenvalues --   -1.04535  -0.92161  -0.78518  -0.69213  -0.67025
 Alpha  occ. eigenvalues --   -0.48026  -0.45777  -0.45608  -0.39392  -0.38429
 Alpha  occ. eigenvalues --   -0.37870  -0.33411  -0.32249  -0.26412  -0.21613
 Alpha  occ. eigenvalues --   -0.21450  -0.21423
 Alpha virt. eigenvalues --   -0.09179   0.01160   0.02459   0.04840   0.05906
 Alpha virt. eigenvalues --    0.06840   0.08925   0.09264   0.09387   0.10417
 Alpha virt. eigenvalues --    0.10709   0.12305   0.13222   0.13616   0.14222

 Mulliken charges:
               1
     1  C    0.195848
     2  O   -0.430295
     3  C   -0.616118
     4  H    0.247937
     5  H    0.255100
     6  H    0.250177
     7  Cl  -0.875427
     8  C    0.506251
     9  N   -0.533472
 Sum of Mulliken charges =  -1.00000

 Dipole moment (field-independent basis, Debye):
    X=             -7.5835    Y=             -2.8882    Z=             -3.0510  Tot=              8.6694
 Quadrupole moment (field-independent basis, Debye-Ang):
   XX=            -66.8204   YY=            -53.0600   ZZ=            -49.0078
   XY=              2.3273   XZ=              2.6770   YZ=              4.3776

 Normal termination of Gaussian 16 at Wed Jan  8 02:25:07 2020.
