 Gaussian 16, Revision A.03,
 Gaussian 16:  AS64L-G16RevA.03 25-Dec-2016

 ----------------------------------------------------------------------
 #p opt=modredundant b3lyp/6-31+g(d) scrf=(smd, solvent=tetrahydrofuran
 )
 ----------------------------------------------------------------------

 -----
 title
 -----
 Symbolic Z-matrix:
 Charge = -1 Multiplicity = 1

 SCF Done:  E(RB3LYP) =  -706.384231047     A.U. after   14 cycles
 SCF Done:  E(RB3LYP) =  -706.407558402     A.U. after   12 cycles
 SCF Done:  E(RB3LYP) =  -706.411591198     A.U. after   12 cycles
 SCF Done:  E(RB3LYP) =  -706.412050627     A.U. after   12 cycles
 SCF Done:  E(RB3LYP) =  -706.412114973     A.U. after   10 cycles
 SCF Done:  E(RB3LYP) =  -706.412120174     A.U. after   10 cycles
 SCF Done:  E(RB3LYP) =  -706.412125863     A.U. after   10 cycles
 SCF Done:  E(RB3LYP) =  -706.412130074     A.U. after   10 cycles
 SCF Done:  E(RB3LYP) =  -706.412137109     A.U. after   10 cycles
 SCF Done:  E(RB3LYP) =  -706.412142216     A.U. after    9 cycles
 SCF Done:  E(RB3LYP) =  -706.412154221     A.U. after   11 cycles
 SCF Done:  E(RB3LYP) =  -706.412153716     A.U. after   10 cycles
 SCF Done:  E(RB3LYP) =  -706.412157683     A.U. after   10 cycles
 SCF Done:  E(RB3LYP) =  -706.412159842     A.U. after    9 cycles
 SCF Done:  E(RB3LYP) =  -706.412169875     A.U. after   10 cycles
 SCF Done:  E(RB3LYP) =  -706.412168483     A.U. after   10 cycles
 SCF Done:  E(RB3LYP) =  -706.412176931     A.U. after   10 cycles
 SCF Done:  E(RB3LYP) =  -706.412178178     A.U. after    9 cycles
 SCF Done:  E(RB3LYP) =  -706.412178176     A.U. after    9 cycles
 SCF Done:  E(RB3LYP) =  -706.412177699     A.U. after    8 cycles
 Optimization completed.
    -- Stationary point found.

                         Standard orientation:
 ---------------------------------------------------------------------
 Center     Atomic      Atomic             Coordinates (Angstroms)
 Number     Number       Type             X           Y           Z
 ---------------------------------------------------------------------
      1          6           0       -0.462252    0.554836    0.263953
      2          8           0       -0.387827    0.856750    1.413962
      3          6           0       -0.436260    1.442391   -0.945224
      4          1           0       -0.147455    0.898019   -1.842614
      5          1           0       -1.453097    1.839733   -1.074830
      6          1           0        0.254411    2.269223   -0.761884
      7         17           0       -1.316814   -1.092402   -0.143888
      8          6           0        1.872996   -0.230749   -0.159687
      9          7           0        2.998241   -0.555573   -0.020075
 ---------------------------------------------------------------------

 The electronic state is 1-A.
 Alpha  occ. eigenvalues -- -101.51110 -19.16025 -14.26342 -10.32475 -10.18521
 Alpha  occ. eigenvalues --  -10.12843  -9.42751  -7.19006  -7.18261  -7.18207
 Alpha  occ. eigenvalues --   -1.06892  -0.81988  -0.80366  -0.73082  -0.53181
 Alpha  occ. eigenvalues --   -0.45910  -0.44959  -0.44492  -0.38402  -0.37080
 Alpha  occ. eigenvalues --   -0.34984  -0.29445  -0.29084  -0.27113  -0.26862
 Alpha  occ. eigenvalues --   -0.26763  -0.23320
 Alpha virt. eigenvalues --   -0.01529   0.01826   0.03611   0.05020   0.05666
 Alpha virt. eigenvalues --    0.06109   0.08489   0.08908   0.09022   0.09679
 Alpha virt. eigenvalues --    0.10870   0.11144   0.11279   0.13254   0.13665

 Mulliken charges:
               1
     1  C   -0.140153
     2  O   -0.251882
     3  C   -0.468869
     4  H    0.263732
     5  H    0.251725
     6  H    0.256887
     7  Cl  -0.059726
     8  C   -0.180839
     9  N   -0.670874
 Sum of Mulliken charges =  -1.00000

 Dipole moment (field-independent basis, Debye):
    X=             -9.1334    Y=              4.0967    Z=             -2.4527  Tot=             10.3062
 Quadrupole moment (field-independent basis, Debye-Ang):
   XX=            -78.9765   YY=            -46.6293   ZZ=            -48.6457
   XY=              3.2572   XZ=              1.5557   YZ=             -3.5595

 Normal termination of Gaussian 16 at Wed Jan  8 00:18:53 2020.
