 Gaussian 16, Revision A.03,
 Gaussian 16:  AS64L-G16RevA.03 25-Dec-2016

 ----------------------------------------------------------------------
 #p opt=modredundant b3lyp/6-31+g(d) scrf=(smd, solvent=tetrahydrofuran
 )
 ----------------------------------------------------------------------

 -----
 title
 -----
 Symbolic Z-matrix:
 Charge = -1 Multiplicity = 1

 SCF Done:  E(RB3LYP) =  -706.343979092     A.U. after   15 cycles
 SCF Done:  E(RB3LYP) =  -706.380570662     A.U. after   13 cycles
 SCF Done:  E(RB3LYP) =  -706.392058361     A.U. after   12 cycles
 SCF Done:  E(RB3LYP) =  -706.397190925     A.U. after   12 cycles
 SCF Done:  E(RB3LYP) =  -706.398125931     A.U. after   11 cycles
 SCF Done:  E(RB3LYP) =  -706.398185758     A.U. after   10 cycles
 SCF Done:  E(RB3LYP) =  -706.398211131     A.U. after   10 cycles
 SCF Done:  E(RB3LYP) =  -706.398221109     A.U. after   10 cycles
 SCF Done:  E(RB3LYP) =  -706.398228820     A.U. after   10 cycles
 SCF Done:  E(RB3LYP) =  -706.398231150     A.U. after   10 cycles
 SCF Done:  E(RB3LYP) =  -706.398231497     A.U. after    8 cycles
 SCF Done:  E(RB3LYP) =  -706.398231812     A.U. after    9 cycles
 SCF Done:  E(RB3LYP) =  -706.398231971     A.U. after    9 cycles
 SCF Done:  E(RB3LYP) =  -706.398232088     A.U. after    9 cycles
 SCF Done:  E(RB3LYP) =  -706.398232214     A.U. after    9 cycles
 SCF Done:  E(RB3LYP) =  -706.398232334     A.U. after    8 cycles
 Optimization completed.
    -- Stationary point found.

                         Standard orientation:
 ---------------------------------------------------------------------
 Center     Atomic      Atomic             Coordinates (Angstroms)
 Number     Number       Type             X           Y           Z
 ---------------------------------------------------------------------
      1          6           0        0.111017    0.933559    0.239219
      2          8           0        0.033819    1.217392    1.351213
      3          6           0        0.011650    1.344057   -1.162827
      4          1           0        0.008242    0.479374   -1.820868
      5          1           0       -0.912644    1.923437   -1.269413
      6          1           0        0.890159    1.971801   -1.362974
      7         17           0       -1.963913   -0.927974   -0.024138
      8          6           0        1.981694   -0.550667   -0.000867
      9          7           0        2.929151   -1.242839   -0.057036
 ---------------------------------------------------------------------

 The electronic state is 1-A.
 Alpha  occ. eigenvalues -- -101.42916 -19.24857 -14.28695 -10.37604 -10.22379
 Alpha  occ. eigenvalues --  -10.16080  -9.34265  -7.10145  -7.09994  -7.09987
 Alpha  occ. eigenvalues --   -1.15460  -0.84408  -0.79078  -0.68193  -0.56776
 Alpha  occ. eigenvalues --   -0.49876  -0.49679  -0.48770  -0.41632  -0.41329
 Alpha  occ. eigenvalues --   -0.37205  -0.29075  -0.29038  -0.26821  -0.22953
 Alpha  occ. eigenvalues --   -0.22421  -0.22399
 Alpha virt. eigenvalues --   -0.06204  -0.03147   0.02373   0.04790   0.04930
 Alpha virt. eigenvalues --    0.05406   0.07105   0.07705   0.08703   0.09844
 Alpha virt. eigenvalues --    0.09968   0.10509   0.10961   0.12596   0.13409

 Mulliken charges:
               1
     1  C    0.478834
     2  O   -0.153203
     3  C   -0.621439
     4  H    0.317828
     5  H    0.293636
     6  H    0.298019
     7  Cl  -0.817495
     8  C   -0.158410
     9  N   -0.637771
 Sum of Mulliken charges =  -1.00000

 Dipole moment (field-independent basis, Debye):
    X=             -0.8380    Y=             10.3473    Z=             -2.6430  Tot=             10.7124
 Quadrupole moment (field-independent basis, Debye-Ang):
   XX=            -88.2113   YY=            -50.5267   ZZ=            -45.0232
   XY=              3.4690   XZ=              0.3106   YZ=             -4.2966

 Normal termination of Gaussian 16 at Wed Jan  8 02:04:43 2020.
