 Gaussian 16, Revision A.03,
 Gaussian 16:  AS64L-G16RevA.03 25-Dec-2016

 ----------------------------------------------------------------------
 #p opt=modredundant b3lyp/6-31+g(d) scrf=(smd, solvent=tetrahydrofuran
 )
 ----------------------------------------------------------------------

 -----
 title
 -----
 Symbolic Z-matrix:
 Charge = -1 Multiplicity = 1

 SCF Done:  E(RB3LYP) =  -706.376467377     A.U. after   14 cycles
 SCF Done:  E(RB3LYP) =  -706.403881711     A.U. after   12 cycles
 SCF Done:  E(RB3LYP) =  -706.408482014     A.U. after   12 cycles
 SCF Done:  E(RB3LYP) =  -706.409515224     A.U. after   12 cycles
 SCF Done:  E(RB3LYP) =  -706.409548982     A.U. after   11 cycles
 SCF Done:  E(RB3LYP) =  -706.409558536     A.U. after   10 cycles
 SCF Done:  E(RB3LYP) =  -706.409583704     A.U. after   11 cycles
 SCF Done:  E(RB3LYP) =  -706.409591445     A.U. after   10 cycles
 SCF Done:  E(RB3LYP) =  -706.409591709     A.U. after    9 cycles
 SCF Done:  E(RB3LYP) =  -706.409591409     A.U. after   11 cycles
 SCF Done:  E(RB3LYP) =  -706.409596022     A.U. after   10 cycles
 SCF Done:  E(RB3LYP) =  -706.409597254     A.U. after    9 cycles
 SCF Done:  E(RB3LYP) =  -706.409601524     A.U. after   10 cycles
 SCF Done:  E(RB3LYP) =  -706.409602810     A.U. after    9 cycles
 SCF Done:  E(RB3LYP) =  -706.409603447     A.U. after    9 cycles
 Optimization completed.
    -- Stationary point found.

                         Standard orientation:
 ---------------------------------------------------------------------
 Center     Atomic      Atomic             Coordinates (Angstroms)
 Number     Number       Type             X           Y           Z
 ---------------------------------------------------------------------
      1          6           0       -0.394557    0.680853    0.253410
      2          8           0       -0.399704    1.027473    1.377415
      3          6           0       -0.333756    1.407602   -1.046899
      4          1           0       -0.042139    0.748539   -1.860797
      5          1           0       -1.339088    1.807218   -1.237138
      6          1           0        0.377108    2.232870   -0.944116
      7         17           0       -1.402984   -1.125761   -0.106062
      8          6           0        1.905705   -0.254468   -0.036367
      9          7           0        2.998304   -0.696344   -0.027869
 ---------------------------------------------------------------------

 The electronic state is 1-A.
 Alpha  occ. eigenvalues -- -101.48905 -19.18539 -14.26715 -10.33766 -10.19599
 Alpha  occ. eigenvalues --  -10.13377  -9.40420  -7.16599  -7.15976  -7.15946
 Alpha  occ. eigenvalues --   -1.09301  -0.82375  -0.77426  -0.73487  -0.53658
 Alpha  occ. eigenvalues --   -0.46163  -0.45937  -0.45780  -0.38644  -0.38190
 Alpha  occ. eigenvalues --   -0.35433  -0.28112  -0.27782  -0.27269  -0.26911
 Alpha  occ. eigenvalues --   -0.26755  -0.23784
 Alpha virt. eigenvalues --   -0.02975   0.00162   0.03144   0.04989   0.05554
 Alpha virt. eigenvalues --    0.05874   0.08170   0.08699   0.08997   0.09739
 Alpha virt. eigenvalues --    0.10482   0.11094   0.11208   0.13002   0.13581

 Mulliken charges:
               1
     1  C    0.081716
     2  O   -0.211253
     3  C   -0.526598
     4  H    0.277321
     5  H    0.263695
     6  H    0.265763
     7  Cl  -0.298867
     8  C   -0.181365
     9  N   -0.670412
 Sum of Mulliken charges =  -1.00000

 Dipole moment (field-independent basis, Debye):
    X=             -7.8409    Y=              5.7771    Z=             -2.5365  Tot=             10.0642
 Quadrupole moment (field-independent basis, Debye-Ang):
   XX=            -80.4020   YY=            -48.0131   ZZ=            -47.3110
   XY=              3.1668   XZ=              1.2362   YZ=             -4.0237

 Normal termination of Gaussian 16 at Wed Jan  8 00:42:23 2020.
