 Gaussian 16, Revision A.03,
 Gaussian 16:  AS64L-G16RevA.03 25-Dec-2016

 ----------------------------------------------------------------------
 #p opt=modredundant b3lyp/6-31+g(d) scrf=(smd, solvent=tetrahydrofuran
 )
 ----------------------------------------------------------------------

 -----
 title
 -----
 Symbolic Z-matrix:
 Charge = -1 Multiplicity = 1

 SCF Done:  E(RB3LYP) =  -706.353086247     A.U. after   14 cycles
 SCF Done:  E(RB3LYP) =  -706.387618867     A.U. after   12 cycles
 SCF Done:  E(RB3LYP) =  -706.397454139     A.U. after   12 cycles
 SCF Done:  E(RB3LYP) =  -706.401382839     A.U. after   12 cycles
 SCF Done:  E(RB3LYP) =  -706.401891695     A.U. after   11 cycles
 SCF Done:  E(RB3LYP) =  -706.401931947     A.U. after   11 cycles
 SCF Done:  E(RB3LYP) =  -706.401949204     A.U. after   10 cycles
 SCF Done:  E(RB3LYP) =  -706.401961424     A.U. after   10 cycles
 SCF Done:  E(RB3LYP) =  -706.401970444     A.U. after   10 cycles
 SCF Done:  E(RB3LYP) =  -706.401971634     A.U. after    9 cycles
 Optimization completed.
    -- Stationary point found.

                         Standard orientation:
 ---------------------------------------------------------------------
 Center     Atomic      Atomic             Coordinates (Angstroms)
 Number     Number       Type             X           Y           Z
 ---------------------------------------------------------------------
      1          6           0        0.097984    0.894715    0.242031
      2          8           0        0.019230    1.213464    1.351397
      3          6           0       -0.020793    1.372290   -1.145202
      4          1           0       -0.005629    0.542917   -1.846631
      5          1           0       -0.957581    1.934671   -1.224351
      6          1           0        0.839262    2.032705   -1.319141
      7         17           0       -1.859870   -0.944831   -0.027925
      8          6           0        1.884608   -0.532114   -0.007236
      9          7           0        2.831016   -1.223604   -0.069126
 ---------------------------------------------------------------------

 The electronic state is 1-A.
 Alpha  occ. eigenvalues -- -101.43195 -19.23050 -14.29092 -10.36505 -10.21578
 Alpha  occ. eigenvalues --  -10.16669  -9.34558  -7.10460  -7.10274  -7.10267
 Alpha  occ. eigenvalues --   -1.13679  -0.84842  -0.78021  -0.68518  -0.55841
 Alpha  occ. eigenvalues --   -0.48982  -0.48664  -0.47650  -0.40717  -0.40411
 Alpha  occ. eigenvalues --   -0.37224  -0.29451  -0.29396  -0.27189  -0.23204
 Alpha  occ. eigenvalues --   -0.22628  -0.22610
 Alpha virt. eigenvalues --   -0.05524  -0.02028   0.02532   0.04877   0.05017
 Alpha virt. eigenvalues --    0.05579   0.07082   0.07759   0.08807   0.09965
 Alpha virt. eigenvalues --    0.10047   0.10428   0.10938   0.12657   0.13482

 Mulliken charges:
               1
     1  C    0.448380
     2  O   -0.170345
     3  C   -0.618094
     4  H    0.305024
     5  H    0.285095
     6  H    0.288004
     7  Cl  -0.783831
     8  C   -0.118299
     9  N   -0.635933
 Sum of Mulliken charges =  -1.00000

 Dipole moment (field-independent basis, Debye):
    X=             -0.8300    Y=              9.6034    Z=             -2.5808  Tot=              9.9787
 Quadrupole moment (field-independent basis, Debye-Ang):
   XX=            -83.4394   YY=            -50.8843   ZZ=            -45.6161
   XY=              3.0966   XZ=              0.4737   YZ=             -4.4122

 Normal termination of Gaussian 16 at Wed Jan  8 01:48:44 2020.
