 Gaussian 16, Revision A.03,
 Gaussian 16:  AS64L-G16RevA.03 25-Dec-2016

 ----------------------------------------------------------------------
 #p opt=modredundant b3lyp/6-31+g(d) scrf=(smd, solvent=tetrahydrofuran
 )
 ----------------------------------------------------------------------

 -----
 title
 -----
 Symbolic Z-matrix:
 Charge = -1 Multiplicity = 1

 SCF Done:  E(RB3LYP) =  -706.388321436     A.U. after   14 cycles
 SCF Done:  E(RB3LYP) =  -706.416908901     A.U. after   13 cycles
 SCF Done:  E(RB3LYP) =  -706.429600393     A.U. after   13 cycles
 SCF Done:  E(RB3LYP) =  -706.432291652     A.U. after   12 cycles
 SCF Done:  E(RB3LYP) =  -706.432563414     A.U. after   11 cycles
 SCF Done:  E(RB3LYP) =  -706.432545962     A.U. after   11 cycles
 SCF Done:  E(RB3LYP) =  -706.432581939     A.U. after   10 cycles
 SCF Done:  E(RB3LYP) =  -706.432575121     A.U. after   10 cycles
 SCF Done:  E(RB3LYP) =  -706.432572586     A.U. after    9 cycles
 SCF Done:  E(RB3LYP) =  -706.432581541     A.U. after   10 cycles
 SCF Done:  E(RB3LYP) =  -706.432581970     A.U. after    9 cycles
 SCF Done:  E(RB3LYP) =  -706.432572991     A.U. after   10 cycles
 SCF Done:  E(RB3LYP) =  -706.432573905     A.U. after    8 cycles
 SCF Done:  E(RB3LYP) =  -706.432581436     A.U. after   10 cycles
 SCF Done:  E(RB3LYP) =  -706.432581963     A.U. after    9 cycles
 SCF Done:  E(RB3LYP) =  -706.432572999     A.U. after   10 cycles
 SCF Done:  E(RB3LYP) =  -706.432573921     A.U. after    8 cycles
 SCF Done:  E(RB3LYP) =  -706.432581409     A.U. after   10 cycles
 SCF Done:  E(RB3LYP) =  -706.432581958     A.U. after    9 cycles
 SCF Done:  E(RB3LYP) =  -706.432572986     A.U. after   10 cycles
 Optimization completed.
    -- Stationary point found.

                         Standard orientation:
 ---------------------------------------------------------------------
 Center     Atomic      Atomic             Coordinates (Angstroms)
 Number     Number       Type             X           Y           Z
 ---------------------------------------------------------------------
      1          6           0        0.446928    0.773665    0.218509
      2          8           0        0.437697    1.186566    1.335434
      3          6           0        0.217571    1.470311   -1.080272
      4          1           0       -0.036822    0.768677   -1.873055
      5          1           0       -0.572989    2.215304   -0.957473
      6          1           0        1.158283    1.980575   -1.335982
      7         17           0       -1.811528   -0.690567    0.005428
      8          6           0        1.378566   -0.742233   -0.053706
      9          7           0        2.069647   -1.675416   -0.159490
 ---------------------------------------------------------------------

 The electronic state is 1-A.
 Alpha  occ. eigenvalues -- -101.42248 -19.16943 -14.32481 -10.33092 -10.21515
 Alpha  occ. eigenvalues --  -10.18870  -9.33636  -7.09498  -7.09370  -7.09362
 Alpha  occ. eigenvalues --   -1.07474  -0.88536  -0.75209  -0.67714  -0.56885
 Alpha  occ. eigenvalues --   -0.48789  -0.44938  -0.44463  -0.39755  -0.37188
 Alpha  occ. eigenvalues --   -0.36730  -0.32579  -0.32443  -0.28089  -0.22169
 Alpha  occ. eigenvalues --   -0.21884  -0.21862
 Alpha virt. eigenvalues --   -0.03038   0.01896   0.02976   0.04060   0.05320
 Alpha virt. eigenvalues --    0.06684   0.06751   0.08269   0.09380   0.09756
 Alpha virt. eigenvalues --    0.10436   0.10614   0.10913   0.13130   0.13619

 Mulliken charges:
               1
     1  C    0.405005
     2  O   -0.307718
     3  C   -0.668070
     4  H    0.265985
     5  H    0.260091
     6  H    0.261339
     7  Cl  -0.818922
     8  C    0.194354
     9  N   -0.592064
 Sum of Mulliken charges =  -1.00000

 Dipole moment (field-independent basis, Debye):
    X=              3.7751    Y=              6.9449    Z=             -2.8017  Tot=              8.3865
 Quadrupole moment (field-independent basis, Debye-Ang):
   XX=            -69.0131   YY=            -54.0672   ZZ=            -47.8811
   XY=              2.6702   XZ=             -0.2846   YZ=             -5.1177

 Normal termination of Gaussian 16 at Wed Jan  8 02:03:18 2020.
