 Gaussian 16, Revision A.03,
 Gaussian 16:  AS64L-G16RevA.03 25-Dec-2016

 ----------------------------------------------------------------------
 #p opt=modredundant b3lyp/6-31+g(d) scrf=(smd, solvent=tetrahydrofuran
 )
 ----------------------------------------------------------------------

 -----
 title
 -----
 Symbolic Z-matrix:
 Charge = -1 Multiplicity = 1

 SCF Done:  E(RB3LYP) =  -706.376716575     A.U. after   14 cycles
 SCF Done:  E(RB3LYP) =  -706.401885471     A.U. after   12 cycles
 SCF Done:  E(RB3LYP) =  -706.407218103     A.U. after   12 cycles
 SCF Done:  E(RB3LYP) =  -706.407618019     A.U. after   11 cycles
 SCF Done:  E(RB3LYP) =  -706.407704480     A.U. after   11 cycles
 SCF Done:  E(RB3LYP) =  -706.407715581     A.U. after   10 cycles
 SCF Done:  E(RB3LYP) =  -706.407727061     A.U. after   11 cycles
 SCF Done:  E(RB3LYP) =  -706.407742379     A.U. after   11 cycles
 SCF Done:  E(RB3LYP) =  -706.407770665     A.U. after   11 cycles
 SCF Done:  E(RB3LYP) =  -706.407787352     A.U. after   11 cycles
 SCF Done:  E(RB3LYP) =  -706.407857402     A.U. after   11 cycles
 SCF Done:  E(RB3LYP) =  -706.407859157     A.U. after    9 cycles
 SCF Done:  E(RB3LYP) =  -706.407865870     A.U. after   11 cycles
 SCF Done:  E(RB3LYP) =  -706.407859388     A.U. after   11 cycles
 SCF Done:  E(RB3LYP) =  -706.407860128     A.U. after    8 cycles
 SCF Done:  E(RB3LYP) =  -706.407865874     A.U. after   11 cycles
 SCF Done:  E(RB3LYP) =  -706.407860112     A.U. after   11 cycles
 SCF Done:  E(RB3LYP) =  -706.407860600     A.U. after    8 cycles
 SCF Done:  E(RB3LYP) =  -706.407865880     A.U. after   11 cycles
 SCF Done:  E(RB3LYP) =  -706.407860251     A.U. after   11 cycles
 Optimization completed.
    -- Stationary point found.

                         Standard orientation:
 ---------------------------------------------------------------------
 Center     Atomic      Atomic             Coordinates (Angstroms)
 Number     Number       Type             X           Y           Z
 ---------------------------------------------------------------------
      1          6           0       -0.602411    0.437083    0.268691
      2          8           0       -0.428387    0.688674    1.436652
      3          6           0       -0.584359    1.457474   -0.841755
      4          1           0       -0.255935    1.026645   -1.787823
      5          1           0       -1.612438    1.829773   -0.961730
      6          1           0        0.065823    2.287868   -0.559404
      7         17           0       -1.235600   -1.073858   -0.185324
      8          6           0        1.966054   -0.172545   -0.298178
      9          7           0        3.079876   -0.390023    0.027671
 ---------------------------------------------------------------------

 The electronic state is 1-A.
 Alpha  occ. eigenvalues -- -101.53823 -19.14618 -14.25740 -10.31502 -10.17826
 Alpha  occ. eigenvalues --  -10.12087  -9.45667  -7.21963  -7.21158  -7.21044
 Alpha  occ. eigenvalues --   -1.05596  -0.85582  -0.81334  -0.72585  -0.54060
 Alpha  occ. eigenvalues --   -0.46434  -0.44704  -0.44312  -0.38663  -0.36720
 Alpha  occ. eigenvalues --   -0.34759  -0.30963  -0.30707  -0.26660  -0.26339
 Alpha  occ. eigenvalues --   -0.26267  -0.22850
 Alpha virt. eigenvalues --   -0.01406   0.02725   0.04694   0.05228   0.05663
 Alpha virt. eigenvalues --    0.06259   0.08465   0.08829   0.09314   0.09490
 Alpha virt. eigenvalues --    0.11137   0.11329   0.11736   0.13406   0.13573

 Mulliken charges:
               1
     1  C   -0.351810
     2  O   -0.295252
     3  C   -0.426011
     4  H    0.256527
     5  H    0.246286
     6  H    0.252825
     7  Cl   0.215301
     8  C   -0.249285
     9  N   -0.648582
 Sum of Mulliken charges =  -1.00000

 Dipole moment (field-independent basis, Debye):
    X=            -11.2481    Y=              2.5302    Z=             -2.4358  Tot=             11.7837
 Quadrupole moment (field-independent basis, Debye-Ang):
   XX=            -80.1178   YY=            -45.0611   ZZ=            -49.8663
   XY=              2.8906   XZ=              1.8121   YZ=             -2.8321

 Normal termination of Gaussian 16 at Tue Jan  7 23:45:20 2020.
