 Gaussian 16, Revision A.03,
 Gaussian 16:  AS64L-G16RevA.03 25-Dec-2016

 ----------------------------------------------------------------------
 #p opt=modredundant b3lyp/6-31+g(d) scrf=(smd, solvent=tetrahydrofuran
 )
 ----------------------------------------------------------------------

 -----
 title
 -----
 Symbolic Z-matrix:
 Charge = -1 Multiplicity = 1

 SCF Done:  E(RB3LYP) =  -706.393344618     A.U. after   14 cycles
 SCF Done:  E(RB3LYP) =  -706.424882416     A.U. after   13 cycles
 SCF Done:  E(RB3LYP) =  -706.446849462     A.U. after   13 cycles
 SCF Done:  E(RB3LYP) =  -706.450016658     A.U. after   12 cycles
 SCF Done:  E(RB3LYP) =  -706.450454016     A.U. after   11 cycles
 SCF Done:  E(RB3LYP) =  -706.450555354     A.U. after   10 cycles
 SCF Done:  E(RB3LYP) =  -706.450708557     A.U. after   11 cycles
 SCF Done:  E(RB3LYP) =  -706.450746017     A.U. after   10 cycles
 SCF Done:  E(RB3LYP) =  -706.450756662     A.U. after   10 cycles
 SCF Done:  E(RB3LYP) =  -706.450767173     A.U. after   10 cycles
 SCF Done:  E(RB3LYP) =  -706.450767811     A.U. after    9 cycles
 SCF Done:  E(RB3LYP) =  -706.450775314     A.U. after   10 cycles
 SCF Done:  E(RB3LYP) =  -706.450776046     A.U. after    8 cycles
 SCF Done:  E(RB3LYP) =  -706.450776597     A.U. after    8 cycles
 SCF Done:  E(RB3LYP) =  -706.450776987     A.U. after    8 cycles
 Optimization completed.
    -- Stationary point found.

                         Standard orientation:
 ---------------------------------------------------------------------
 Center     Atomic      Atomic             Coordinates (Angstroms)
 Number     Number       Type             X           Y           Z
 ---------------------------------------------------------------------
      1          6           0       -0.874099   -0.567863    0.189807
      2          8           0       -1.009869   -0.969176    1.318361
      3          6           0       -0.713382   -1.374659   -1.057191
      4          1           0       -0.046257   -0.877192   -1.763152
      5          1           0       -0.334929   -2.368793   -0.806662
      6          1           0       -1.706096   -1.470695   -1.522028
      7         17           0        2.125564    0.200442    0.042397
      8          6           0       -1.104326    0.994127   -0.069389
      9          7           0       -1.402501    2.107564   -0.222166
 ---------------------------------------------------------------------

 The electronic state is 1-A.
 Alpha  occ. eigenvalues -- -101.41397 -19.16931 -14.34541 -10.32534 -10.23600
 Alpha  occ. eigenvalues --  -10.18578  -9.32732  -7.08543  -7.08497  -7.08494
 Alpha  occ. eigenvalues --   -1.07042  -0.90656  -0.75602  -0.66645  -0.61750
 Alpha  occ. eigenvalues --   -0.49374  -0.45148  -0.44691  -0.40122  -0.37777
 Alpha  occ. eigenvalues --   -0.37341  -0.34124  -0.33929  -0.28233  -0.21283
 Alpha  occ. eigenvalues --   -0.21154  -0.21152
 Alpha virt. eigenvalues --   -0.05378   0.02225   0.02729   0.03915   0.05545
 Alpha virt. eigenvalues --    0.06621   0.07173   0.08679   0.09431   0.10103
 Alpha virt. eigenvalues --    0.10485   0.10616   0.11859   0.13365   0.13414

 Mulliken charges:
               1
     1  C    0.446255
     2  O   -0.357633
     3  C   -0.713216
     4  H    0.268982
     5  H    0.254116
     6  H    0.262772
     7  Cl  -0.917396
     8  C    0.305591
     9  N   -0.549471
 Sum of Mulliken charges =  -1.00000

 Dipole moment (field-independent basis, Debye):
    X=             -7.9580    Y=             -4.7458    Z=             -3.0480  Tot=              9.7541
 Quadrupole moment (field-independent basis, Debye-Ang):
   XX=            -69.6635   YY=            -55.0100   ZZ=            -48.1819
   XY=              3.3813   XZ=              2.0806   YZ=              4.8872

 Normal termination of Gaussian 16 at Wed Jan  8 02:40:23 2020.
