 Gaussian 16, Revision A.03,
 Gaussian 16:  AS64L-G16RevA.03 25-Dec-2016

 ----------------------------------------------------------------------
 #p opt=modredundant b3lyp/6-31+g(d) scrf=(smd, solvent=tetrahydrofuran
 )
 ----------------------------------------------------------------------

 -----
 title
 -----
 Symbolic Z-matrix:
 Charge = -1 Multiplicity = 1

 SCF Done:  E(RB3LYP) =  -706.375527245     A.U. after   14 cycles
 SCF Done:  E(RB3LYP) =  -706.405005989     A.U. after   12 cycles
 SCF Done:  E(RB3LYP) =  -706.413748588     A.U. after   12 cycles
 SCF Done:  E(RB3LYP) =  -706.416404848     A.U. after   12 cycles
 SCF Done:  E(RB3LYP) =  -706.416569070     A.U. after   11 cycles
 SCF Done:  E(RB3LYP) =  -706.416593189     A.U. after   10 cycles
 SCF Done:  E(RB3LYP) =  -706.416607518     A.U. after   10 cycles
 SCF Done:  E(RB3LYP) =  -706.416611908     A.U. after    9 cycles
 SCF Done:  E(RB3LYP) =  -706.416612327     A.U. after    9 cycles
 Optimization completed.
    -- Stationary point found.

                         Standard orientation:
 ---------------------------------------------------------------------
 Center     Atomic      Atomic             Coordinates (Angstroms)
 Number     Number       Type             X           Y           Z
 ---------------------------------------------------------------------
      1          6           0        0.199014    0.831493    0.235473
      2          8           0        0.120457    1.216969    1.344700
      3          6           0       -0.017982    1.439274   -1.103900
      4          1           0       -0.053177    0.680860   -1.882610
      5          1           0       -0.948544    2.014240   -1.083002
      6          1           0        0.829858    2.115678   -1.282534
      7         17           0       -1.708163   -0.917289   -0.018373
      8          6           0        1.616053   -0.554316   -0.031985
      9          7           0        2.494925   -1.321618   -0.113520
 ---------------------------------------------------------------------

 The electronic state is 1-A.
 Alpha  occ. eigenvalues -- -101.42968 -19.18665 -14.30881 -10.34091 -10.19698
 Alpha  occ. eigenvalues --  -10.19284  -9.34366  -7.10267  -7.10076  -7.10069
 Alpha  occ. eigenvalues --   -1.09342  -0.86797  -0.75864  -0.68436  -0.54811
 Alpha  occ. eigenvalues --   -0.48462  -0.45946  -0.45282  -0.39652  -0.38169
 Alpha  occ. eigenvalues --   -0.36642  -0.31153  -0.31021  -0.28105  -0.22899
 Alpha  occ. eigenvalues --   -0.22448  -0.22426
 Alpha virt. eigenvalues --   -0.03215   0.00421   0.02745   0.04798   0.05114
 Alpha virt. eigenvalues --    0.06225   0.06828   0.07748   0.09014   0.09943
 Alpha virt. eigenvalues --    0.10268   0.10469   0.10877   0.12890   0.13621

 Mulliken charges:
               1
     1  C    0.413396
     2  O   -0.249318
     3  C   -0.637867
     4  H    0.276358
     5  H    0.267301
     6  H    0.267295
     7  Cl  -0.765287
     8  C    0.046079
     9  N   -0.617957
 Sum of Mulliken charges =  -1.00000

 Dipole moment (field-independent basis, Debye):
    X=              0.9521    Y=              7.9701    Z=             -2.6359  Tot=              8.4485
 Quadrupole moment (field-independent basis, Debye-Ang):
   XX=            -73.2683   YY=            -52.5020   ZZ=            -47.1348
   XY=              2.3185   XZ=              0.5694   YZ=             -4.8258

 Normal termination of Gaussian 16 at Wed Jan  8 01:35:57 2020.
