 Gaussian 16, Revision A.03,
 Gaussian 16:  AS64L-G16RevA.03 25-Dec-2016

 ----------------------------------------------------------------------
 #p opt=modredundant b3lyp/6-31+g(d) scrf=(smd, solvent=tetrahydrofuran
 )
 ----------------------------------------------------------------------

 -----
 title
 -----
 Symbolic Z-matrix:
 Charge = -1 Multiplicity = 1

 SCF Done:  E(RB3LYP) =  -706.386205612     A.U. after   14 cycles
 SCF Done:  E(RB3LYP) =  -706.407044170     A.U. after   13 cycles
 SCF Done:  E(RB3LYP) =  -706.409783619     A.U. after   12 cycles
 SCF Done:  E(RB3LYP) =  -706.410169069     A.U. after   12 cycles
 SCF Done:  E(RB3LYP) =  -706.410199400     A.U. after   10 cycles
 SCF Done:  E(RB3LYP) =  -706.410211554     A.U. after   11 cycles
 SCF Done:  E(RB3LYP) =  -706.410210945     A.U. after   10 cycles
 SCF Done:  E(RB3LYP) =  -706.410210919     A.U. after    9 cycles
 SCF Done:  E(RB3LYP) =  -706.410212823     A.U. after   10 cycles
 SCF Done:  E(RB3LYP) =  -706.410210725     A.U. after   10 cycles
 SCF Done:  E(RB3LYP) =  -706.410211116     A.U. after    8 cycles
 SCF Done:  E(RB3LYP) =  -706.410212940     A.U. after   10 cycles
 SCF Done:  E(RB3LYP) =  -706.410212342     A.U. after   10 cycles
 SCF Done:  E(RB3LYP) =  -706.410213079     A.U. after    8 cycles
 SCF Done:  E(RB3LYP) =  -706.410213574     A.U. after    8 cycles
 Optimization completed.
    -- Stationary point found.

                         Standard orientation:
 ---------------------------------------------------------------------
 Center     Atomic      Atomic             Coordinates (Angstroms)
 Number     Number       Type             X           Y           Z
 ---------------------------------------------------------------------
      1          6           0       -0.351346    0.606905    0.253046
      2          8           0       -0.391894    0.973194    1.385218
      3          6           0       -0.364810    1.418032   -1.010308
      4          1           0       -0.089086    0.821308   -1.877808
      5          1           0       -1.384247    1.806039   -1.139594
      6          1           0        0.328413    2.255982   -0.890319
      7         17           0       -1.301438   -1.113392   -0.118309
      8          6           0        1.767110   -0.233605   -0.056288
      9          7           0        2.871257   -0.641317   -0.040211
 ---------------------------------------------------------------------

 The electronic state is 1-A.
 Alpha  occ. eigenvalues -- -101.49245 -19.15575 -14.27315 -10.32367 -10.18511
 Alpha  occ. eigenvalues --  -10.14216  -9.40835  -7.17041  -7.16366  -7.16339
 Alpha  occ. eigenvalues --   -1.06444  -0.83049  -0.77933  -0.72704  -0.52738
 Alpha  occ. eigenvalues --   -0.45215  -0.45064  -0.44052  -0.37826  -0.37288
 Alpha  occ. eigenvalues --   -0.35075  -0.28701  -0.27848  -0.27658  -0.27106
 Alpha  occ. eigenvalues --   -0.26268  -0.24004
 Alpha virt. eigenvalues --   -0.01518   0.01810   0.03536   0.05147   0.05923
 Alpha virt. eigenvalues --    0.06132   0.08179   0.08734   0.09106   0.09828
 Alpha virt. eigenvalues --    0.10705   0.10880   0.11216   0.13134   0.13714

 Mulliken charges:
               1
     1  C    0.011521
     2  O   -0.261863
     3  C   -0.506129
     4  H    0.260365
     5  H    0.250225
     6  H    0.254417
     7  Cl  -0.218423
     8  C   -0.109408
     9  N   -0.680706
 Sum of Mulliken charges =  -1.00000

 Dipole moment (field-independent basis, Debye):
    X=             -6.9002    Y=              4.5464    Z=             -2.6495  Tot=              8.6777
 Quadrupole moment (field-independent basis, Debye-Ang):
   XX=            -75.6512   YY=            -48.1618   ZZ=            -48.3425
   XY=              3.0810   XZ=              1.5163   YZ=             -4.0484

 Normal termination of Gaussian 16 at Wed Jan  8 00:29:53 2020.
