 Gaussian 16, Revision A.03,
 Gaussian 16:  AS64L-G16RevA.03 25-Dec-2016

 ----------------------------------------------------------------------
 #p opt=modredundant b3lyp/6-31+g(d) scrf=(smd, solvent=tetrahydrofuran
 )
 ----------------------------------------------------------------------

 -----
 title
 -----
 Symbolic Z-matrix:
 Charge = -1 Multiplicity = 1

 SCF Done:  E(RB3LYP) =  -706.389319514     A.U. after   15 cycles
 SCF Done:  E(RB3LYP) =  -706.421978685     A.U. after   13 cycles
 SCF Done:  E(RB3LYP) =  -706.447426303     A.U. after   14 cycles
 SCF Done:  E(RB3LYP) =  -706.449919490     A.U. after   12 cycles
 SCF Done:  E(RB3LYP) =  -706.450227549     A.U. after   11 cycles
 SCF Done:  E(RB3LYP) =  -706.450372582     A.U. after   11 cycles
 SCF Done:  E(RB3LYP) =  -706.450423665     A.U. after   10 cycles
 SCF Done:  E(RB3LYP) =  -706.450460003     A.U. after   10 cycles
 SCF Done:  E(RB3LYP) =  -706.450484134     A.U. after   10 cycles
 SCF Done:  E(RB3LYP) =  -706.450502632     A.U. after   11 cycles
 SCF Done:  E(RB3LYP) =  -706.450496392     A.U. after   11 cycles
 SCF Done:  E(RB3LYP) =  -706.450502605     A.U. after   10 cycles
 SCF Done:  E(RB3LYP) =  -706.450504053     A.U. after   10 cycles
 SCF Done:  E(RB3LYP) =  -706.450503549     A.U. after    9 cycles
 SCF Done:  E(RB3LYP) =  -706.450504368     A.U. after    9 cycles
 SCF Done:  E(RB3LYP) =  -706.450503965     A.U. after    8 cycles
 Optimization completed.
    -- Stationary point found.

                         Standard orientation:
 ---------------------------------------------------------------------
 Center     Atomic      Atomic             Coordinates (Angstroms)
 Number     Number       Type             X           Y           Z
 ---------------------------------------------------------------------
      1          6           0       -0.984812   -0.401467    0.168612
      2          8           0       -1.225711   -0.787299    1.307690
      3          6           0       -0.863759   -1.316003   -1.020367
      4          1           0       -0.111113   -0.956934   -1.725980
      5          1           0       -0.616826   -2.324606   -0.680180
      6          1           0       -1.837231   -1.337201   -1.532924
      7         17           0        2.183712    0.033922    0.064265
      8          6           0       -0.981345    0.975970   -0.081697
      9          7           0       -1.110395    2.112780   -0.287747
 ---------------------------------------------------------------------

 The electronic state is 1-A.
 Alpha  occ. eigenvalues -- -101.41372 -19.16200 -14.35679 -10.30740 -10.23977
 Alpha  occ. eigenvalues --  -10.18115  -9.32700  -7.08511  -7.08467  -7.08464
 Alpha  occ. eigenvalues --   -1.05849  -0.91882  -0.76313  -0.66690  -0.66443
 Alpha  occ. eigenvalues --   -0.48953  -0.45235  -0.44886  -0.39915  -0.38366
 Alpha  occ. eigenvalues --   -0.37594  -0.34528  -0.33777  -0.27483  -0.21239
 Alpha  occ. eigenvalues --   -0.21123  -0.21107
 Alpha virt. eigenvalues --   -0.07419   0.01687   0.02404   0.04537   0.05773
 Alpha virt. eigenvalues --    0.06675   0.08353   0.08822   0.09326   0.10404
 Alpha virt. eigenvalues --    0.10637   0.10747   0.12671   0.13336   0.13660

 Mulliken charges:
               1
     1  C    0.387850
     2  O   -0.398548
     3  C   -0.680538
     4  H    0.262382
     5  H    0.251064
     6  H    0.257985
     7  Cl  -0.925357
     8  C    0.379188
     9  N   -0.534028
 Sum of Mulliken charges =  -1.00000

 Dipole moment (field-independent basis, Debye):
    X=             -8.6940    Y=             -3.2902    Z=             -3.1462  Tot=              9.8137
 Quadrupole moment (field-independent basis, Debye-Ang):
   XX=            -69.6811   YY=            -54.1302   ZZ=            -48.5969
   XY=              2.8785   XZ=              2.7695   YZ=              4.5565

 Normal termination of Gaussian 16 at Wed Jan  8 02:57:28 2020.
