 Gaussian 16, Revision A.03,
 Gaussian 16:  AS64L-G16RevA.03 25-Dec-2016

 ----------------------------------------------------------------------
 #p opt=modredundant b3lyp/6-31+g(d) scrf=(smd, solvent=tetrahydrofuran
 )
 ----------------------------------------------------------------------

 -----
 title
 -----
 Symbolic Z-matrix:
 Charge = -1 Multiplicity = 1

 SCF Done:  E(RB3LYP) =  -706.416975073     A.U. after   14 cycles
 SCF Done:  E(RB3LYP) =  -706.433853801     A.U. after   12 cycles
 SCF Done:  E(RB3LYP) =  -706.437529530     A.U. after   13 cycles
 SCF Done:  E(RB3LYP) =  -706.437738915     A.U. after   11 cycles
 SCF Done:  E(RB3LYP) =  -706.437751062     A.U. after   10 cycles
 SCF Done:  E(RB3LYP) =  -706.437751948     A.U. after    9 cycles
 Optimization completed.
    -- Stationary point found.

                         Standard orientation:
 ---------------------------------------------------------------------
 Center     Atomic      Atomic             Coordinates (Angstroms)
 Number     Number       Type             X           Y           Z
 ---------------------------------------------------------------------
      1          6           0        0.158704    0.600154    0.219345
      2          8           0        0.136190    1.056976    1.366082
      3          6           0       -0.103741    1.461188   -1.005470
      4          1           0       -0.147702    0.876768   -1.927183
      5          1           0       -1.043087    2.004387   -0.867303
      6          1           0        0.716169    2.189388   -1.080603
      7         17           0       -1.446257   -0.883047   -0.034059
      8          6           0        1.320192   -0.462382   -0.066948
      9          7           0        2.245792   -1.158332   -0.193734
 ---------------------------------------------------------------------

 The electronic state is 1-A.
 Alpha  occ. eigenvalues -- -101.45120 -19.10501 -14.32502 -10.29679 -10.21662
 Alpha  occ. eigenvalues --  -10.16835  -9.36698  -7.12723  -7.12322  -7.12304
 Alpha  occ. eigenvalues --   -1.00868  -0.88845  -0.74409  -0.70286  -0.59247
 Alpha  occ. eigenvalues --   -0.46087  -0.42528  -0.41180  -0.38220  -0.35959
 Alpha  occ. eigenvalues --   -0.35428  -0.32332  -0.32039  -0.24630  -0.24589
 Alpha  occ. eigenvalues --   -0.23552  -0.22909
 Alpha virt. eigenvalues --   -0.00716   0.02594   0.04178   0.04445   0.05722
 Alpha virt. eigenvalues --    0.07098   0.07148   0.08818   0.09803   0.10270
 Alpha virt. eigenvalues --    0.10580   0.11139   0.12901   0.13811   0.14355

 Mulliken charges:
               1
     1  C    0.150819
     2  O   -0.439164
     3  C   -0.605579
     4  H    0.233394
     5  H    0.241655
     6  H    0.232659
     7  Cl  -0.525392
     8  C    0.338950
     9  N   -0.627341
 Sum of Mulliken charges =  -1.00000

 Dipole moment (field-independent basis, Debye):
    X=              0.1260    Y=              4.0493    Z=             -3.1731  Tot=              5.1460
 Quadrupole moment (field-independent basis, Debye-Ang):
   XX=            -63.0962   YY=            -52.6437   ZZ=            -50.1944
   XY=              1.8981   XZ=              0.5530   YZ=             -5.3330

 Normal termination of Gaussian 16 at Wed Jan  8 00:43:44 2020.
