 Gaussian 16, Revision A.03,
 Gaussian 16:  AS64L-G16RevA.03 25-Dec-2016

 ----------------------------------------------------------------------
 #p opt=modredundant b3lyp/6-31+g(d) scrf=(smd, solvent=tetrahydrofuran
 )
 ----------------------------------------------------------------------

 -----
 title
 -----
 Symbolic Z-matrix:
 Charge = -1 Multiplicity = 1

 SCF Done:  E(RB3LYP) =  -706.326298782     A.U. after   16 cycles
 SCF Done:  E(RB3LYP) =  -706.366775751     A.U. after   13 cycles
 SCF Done:  E(RB3LYP) =  -706.381290709     A.U. after   12 cycles
 SCF Done:  E(RB3LYP) =  -706.388859769     A.U. after   12 cycles
 SCF Done:  E(RB3LYP) =  -706.390914537     A.U. after   11 cycles
 SCF Done:  E(RB3LYP) =  -706.391077985     A.U. after   10 cycles
 SCF Done:  E(RB3LYP) =  -706.391125040     A.U. after   11 cycles
 SCF Done:  E(RB3LYP) =  -706.391323866     A.U. after   10 cycles
 SCF Done:  E(RB3LYP) =  -706.391471028     A.U. after   10 cycles
 SCF Done:  E(RB3LYP) =  -706.391530336     A.U. after   10 cycles
 SCF Done:  E(RB3LYP) =  -706.391581701     A.U. after   10 cycles
 SCF Done:  E(RB3LYP) =  -706.391589501     A.U. after   10 cycles
 SCF Done:  E(RB3LYP) =  -706.391590114     A.U. after    9 cycles
 SCF Done:  E(RB3LYP) =  -706.391606892     A.U. after   10 cycles
 SCF Done:  E(RB3LYP) =  -706.391621355     A.U. after    8 cycles
 SCF Done:  E(RB3LYP) =  -706.391633690     A.U. after    9 cycles
 SCF Done:  E(RB3LYP) =  -706.391638342     A.U. after    8 cycles
 SCF Done:  E(RB3LYP) =  -706.391636913     A.U. after    8 cycles
 SCF Done:  E(RB3LYP) =  -706.391636804     A.U. after    8 cycles
 SCF Done:  E(RB3LYP) =  -706.391636905     A.U. after    8 cycles
 Optimization completed.
    -- Stationary point found.

                         Standard orientation:
 ---------------------------------------------------------------------
 Center     Atomic      Atomic             Coordinates (Angstroms)
 Number     Number       Type             X           Y           Z
 ---------------------------------------------------------------------
      1          6           0       -0.076119    0.852546    0.268419
      2          8           0       -0.006459    0.947032    1.399899
      3          6           0       -0.011063    1.181967   -1.137665
      4          1           0        0.063619    0.270712   -1.730895
      5          1           0       -0.931241    1.724251   -1.385880
      6          1           0        0.878572    1.809828   -1.274440
      7         17           0       -2.302151   -0.815023   -0.054069
      8          6           0        2.473252   -0.492178   -0.051615
      9          7           0        3.551552   -0.968524   -0.051949
 ---------------------------------------------------------------------

 The electronic state is 1-A.
 Alpha  occ. eigenvalues -- -101.43920 -19.28658 -14.26833 -10.39940 -10.24100
 Alpha  occ. eigenvalues --  -10.13419  -9.35258  -7.11166  -7.10976  -7.10964
 Alpha  occ. eigenvalues --   -1.19185  -0.82443  -0.81542  -0.69124  -0.58985
 Alpha  occ. eigenvalues --   -0.52171  -0.51799  -0.51309  -0.43621  -0.43344
 Alpha  occ. eigenvalues --   -0.35978  -0.27393  -0.27376  -0.24566  -0.23991
 Alpha  occ. eigenvalues --   -0.23292  -0.23231
 Alpha virt. eigenvalues --   -0.07242  -0.05646   0.02002   0.04530   0.04838
 Alpha virt. eigenvalues --    0.04979   0.07177   0.07712   0.08557   0.09563
 Alpha virt. eigenvalues --    0.09828   0.11012   0.11307   0.12399   0.13038

 Mulliken charges:
               1
     1  C    0.703463
     2  O   -0.169169
     3  C   -0.718836
     4  H    0.348204
     5  H    0.318468
     6  H    0.316356
     7  Cl  -0.804610
     8  C   -0.337082
     9  N   -0.656793
 Sum of Mulliken charges =  -1.00000

 Dipole moment (field-independent basis, Debye):
    X=             -4.5196    Y=             10.1916    Z=             -2.3695  Tot=             11.3978
 Quadrupole moment (field-independent basis, Debye-Ang):
   XX=           -111.8084   YY=            -47.5471   ZZ=            -44.1213
   XY=              4.0407   XZ=              0.2806   YZ=             -3.5836

 Normal termination of Gaussian 16 at Wed Jan  8 02:14:11 2020.
