 Gaussian 16, Revision A.03,
 Gaussian 16:  AS64L-G16RevA.03 25-Dec-2016

 ----------------------------------------------------------------------
 #p opt=modredundant b3lyp/6-31+g(d) scrf=(smd, solvent=tetrahydrofuran
 )
 ----------------------------------------------------------------------

 -----
 title
 -----
 Symbolic Z-matrix:
 Charge = -1 Multiplicity = 1

 SCF Done:  E(RB3LYP) =  -706.367291323     A.U. after   14 cycles
 SCF Done:  E(RB3LYP) =  -706.397861117     A.U. after   12 cycles
 SCF Done:  E(RB3LYP) =  -706.404596724     A.U. after   12 cycles
 SCF Done:  E(RB3LYP) =  -706.406657201     A.U. after   12 cycles
 SCF Done:  E(RB3LYP) =  -706.406759953     A.U. after   11 cycles
 SCF Done:  E(RB3LYP) =  -706.406784292     A.U. after   10 cycles
 SCF Done:  E(RB3LYP) =  -706.406824097     A.U. after   11 cycles
 SCF Done:  E(RB3LYP) =  -706.406855656     A.U. after   10 cycles
 SCF Done:  E(RB3LYP) =  -706.406860973     A.U. after   10 cycles
 SCF Done:  E(RB3LYP) =  -706.406862361     A.U. after    9 cycles
 SCF Done:  E(RB3LYP) =  -706.406863233     A.U. after    9 cycles
 SCF Done:  E(RB3LYP) =  -706.406863398     A.U. after    9 cycles
 Optimization completed.
    -- Stationary point found.

                         Standard orientation:
 ---------------------------------------------------------------------
 Center     Atomic      Atomic             Coordinates (Angstroms)
 Number     Number       Type             X           Y           Z
 ---------------------------------------------------------------------
      1          6           0       -0.001302    0.844326    0.244751
      2          8           0       -0.087247    1.211191    1.350659
      3          6           0       -0.114354    1.418391   -1.118175
      4          1           0       -0.037531    0.647069   -1.879590
      5          1           0       -1.077543    1.935584   -1.187872
      6          1           0        0.706229    2.139713   -1.225653
      7         17           0       -1.635149   -1.026062   -0.041938
      8          6           0        1.761638   -0.447264   -0.007906
      9          7           0        2.718353   -1.123080   -0.073033
 ---------------------------------------------------------------------

 The electronic state is 1-A.
 Alpha  occ. eigenvalues -- -101.44176 -19.20182 -14.29206 -10.34831 -10.20389
 Alpha  occ. eigenvalues --  -10.16929  -9.35578  -7.11542  -7.11253  -7.11248
 Alpha  occ. eigenvalues --   -1.10857  -0.85012  -0.76536  -0.69604  -0.54518
 Alpha  occ. eigenvalues --   -0.47806  -0.46850  -0.46084  -0.39491  -0.38994
 Alpha  occ. eigenvalues --   -0.36669  -0.29618  -0.29512  -0.27131  -0.24062
 Alpha  occ. eigenvalues --   -0.23363  -0.23279
 Alpha virt. eigenvalues --   -0.04321  -0.00255   0.02778   0.05038   0.05265
 Alpha virt. eigenvalues --    0.05853   0.07201   0.07925   0.08964   0.10006
 Alpha virt. eigenvalues --    0.10303   0.10454   0.10959   0.12801   0.13564

 Mulliken charges:
               1
     1  C    0.361879
     2  O   -0.202922
     3  C   -0.596130
     4  H    0.285867
     5  H    0.271775
     6  H    0.273779
     7  Cl  -0.682616
     8  C   -0.069865
     9  N   -0.641766
 Sum of Mulliken charges =  -1.00000

 Dipole moment (field-independent basis, Debye):
    X=             -1.8520    Y=              8.3441    Z=             -2.5616  Tot=              8.9228
 Quadrupole moment (field-independent basis, Debye-Ang):
   XX=            -76.8874   YY=            -51.2253   ZZ=            -46.5282
   XY=              2.6520   XZ=              0.7532   YZ=             -4.5876

 Normal termination of Gaussian 16 at Wed Jan  8 01:26:46 2020.
