 Gaussian 16, Revision A.03,
 Gaussian 16:  AS64L-G16RevA.03 25-Dec-2016

 ----------------------------------------------------------------------
 #p opt=modredundant b3lyp/6-31+g(d) scrf=(smd, solvent=tetrahydrofuran
 )
 ----------------------------------------------------------------------

 -----
 title
 -----
 Symbolic Z-matrix:
 Charge = -1 Multiplicity = 1

 SCF Done:  E(RB3LYP) =  -706.331753881     A.U. after   14 cycles
 SCF Done:  E(RB3LYP) =  -706.356011310     A.U. after   12 cycles
 SCF Done:  E(RB3LYP) =  -706.360640686     A.U. after   12 cycles
 SCF Done:  E(RB3LYP) =  -706.361155823     A.U. after   11 cycles
 SCF Done:  E(RB3LYP) =  -706.361190338     A.U. after   10 cycles
 SCF Done:  E(RB3LYP) =  -706.361241234     A.U. after   11 cycles
 SCF Done:  E(RB3LYP) =  -706.361260182     A.U. after   11 cycles
 SCF Done:  E(RB3LYP) =  -706.361309296     A.U. after   11 cycles
 SCF Done:  E(RB3LYP) =  -706.360789850     A.U. after   13 cycles
 SCF Done:  E(RB3LYP) =  -706.361416261     A.U. after   11 cycles
 SCF Done:  E(RB3LYP) =  -706.361423121     A.U. after   11 cycles
 SCF Done:  E(RB3LYP) =  -706.361428017     A.U. after   11 cycles
 SCF Done:  E(RB3LYP) =  -706.361428494     A.U. after   11 cycles
 SCF Done:  E(RB3LYP) =  -706.361429166     A.U. after   10 cycles
 SCF Done:  E(RB3LYP) =  -706.361436396     A.U. after   11 cycles
 SCF Done:  E(RB3LYP) =  -706.361437571     A.U. after   10 cycles
 SCF Done:  E(RB3LYP) =  -706.361438017     A.U. after   11 cycles
 SCF Done:  E(RB3LYP) =  -706.361439511     A.U. after   10 cycles
 SCF Done:  E(RB3LYP) =  -706.361440102     A.U. after   10 cycles
 Optimization completed.
    -- Stationary point found.

                         Standard orientation:
 ---------------------------------------------------------------------
 Center     Atomic      Atomic             Coordinates (Angstroms)
 Number     Number       Type             X           Y           Z
 ---------------------------------------------------------------------
      1          6           0       -0.618671    0.320029    0.243682
      2          8           0       -0.466294    0.576463    1.439887
      3          6           0       -0.529857    1.448633   -0.779609
      4          1           0       -0.225596    1.095427   -1.767109
      5          1           0       -1.532191    1.896053   -0.861222
      6          1           0        0.166866    2.209256   -0.423836
      7         17           0       -1.180527   -0.988634   -0.227189
      8          6           0        1.865804   -0.259345   -0.258028
      9          7           0        3.012367   -0.294508    0.022716
 ---------------------------------------------------------------------

 The electronic state is 1-A.
 Alpha  occ. eigenvalues -- -101.55294 -19.11940 -14.25624 -10.29675 -10.16854
 Alpha  occ. eigenvalues --  -10.11884  -9.47640  -7.23914  -7.23109  -7.22924
 Alpha  occ. eigenvalues --   -1.04021  -0.90795  -0.81226  -0.71422  -0.55171
 Alpha  occ. eigenvalues --   -0.46128  -0.45518  -0.44233  -0.38114  -0.36929
 Alpha  occ. eigenvalues --   -0.34659  -0.30768  -0.30123  -0.26266  -0.26067
 Alpha  occ. eigenvalues --   -0.24752  -0.22589
 Alpha virt. eigenvalues --   -0.01041   0.02978   0.04858   0.05686   0.06165
 Alpha virt. eigenvalues --    0.07246   0.08514   0.09129   0.09322   0.09506
 Alpha virt. eigenvalues --    0.11129   0.11331   0.12364   0.13563   0.13824

 Mulliken charges:
               1
     1  C   -0.561366
     2  O   -0.362552
     3  C   -0.339273
     4  H    0.238815
     5  H    0.233332
     6  H    0.247534
     7  Cl   0.445023
     8  C   -0.243541
     9  N   -0.657973
 Sum of Mulliken charges =  -1.00000

 Dipole moment (field-independent basis, Debye):
    X=            -11.2148    Y=              1.3260    Z=             -2.9515  Tot=             11.6722
 Quadrupole moment (field-independent basis, Debye-Ang):
   XX=            -77.6450   YY=            -44.5246   ZZ=            -50.7890
   XY=              3.3639   XZ=              2.0967   YZ=             -2.5038

 Normal termination of Gaussian 16 at Tue Jan  7 23:03:40 2020.
