 Gaussian 16, Revision A.03,
 Gaussian 16:  AS64L-G16RevA.03 25-Dec-2016

 ----------------------------------------------------------------------
 #p opt=modredundant b3lyp/6-31+g(d) scrf=(smd, solvent=tetrahydrofuran
 )
 ----------------------------------------------------------------------

 -----
 title
 -----
 Symbolic Z-matrix:
 Charge = -1 Multiplicity = 1

 SCF Done:  E(RB3LYP) =  -706.408203436     A.U. after   14 cycles
 SCF Done:  E(RB3LYP) =  -706.415726639     A.U. after   13 cycles
 SCF Done:  E(RB3LYP) =  -706.416237306     A.U. after   12 cycles
 SCF Done:  E(RB3LYP) =  -706.416325891     A.U. after   11 cycles
 SCF Done:  E(RB3LYP) =  -706.416332834     A.U. after   10 cycles
 SCF Done:  E(RB3LYP) =  -706.416332781     A.U. after    9 cycles
 SCF Done:  E(RB3LYP) =  -706.416332976     A.U. after    8 cycles
 Optimization completed.
    -- Stationary point found.

                         Standard orientation:
 ---------------------------------------------------------------------
 Center     Atomic      Atomic             Coordinates (Angstroms)
 Number     Number       Type             X           Y           Z
 ---------------------------------------------------------------------
      1          6           0        0.085607    0.401773    0.205143
      2          8           0        0.099444    0.868311    1.413663
      3          6           0       -0.127228    1.453251   -0.919442
      4          1           0       -0.166172    1.012525   -1.921979
      5          1           0       -1.063882    1.981638   -0.716362
      6          1           0        0.700286    2.172040   -0.875192
      7         17           0       -1.333265   -0.828905   -0.081616
      8          6           0        1.207274   -0.389321   -0.070600
      9          7           0        2.200830   -0.973647   -0.242699
 ---------------------------------------------------------------------

 The electronic state is 1-A.
 Alpha  occ. eigenvalues -- -101.48250 -19.05829 -14.32158 -10.26851 -10.21189
 Alpha  occ. eigenvalues --  -10.15882  -9.40020  -7.16207  -7.15538  -7.15509
 Alpha  occ. eigenvalues --   -0.96270  -0.88670  -0.78494  -0.70418  -0.63035
 Alpha  occ. eigenvalues --   -0.45559  -0.42469  -0.40095  -0.37060  -0.36139
 Alpha  occ. eigenvalues --   -0.35233  -0.31753  -0.31365  -0.26887  -0.26376
 Alpha  occ. eigenvalues --   -0.21097  -0.19877
 Alpha virt. eigenvalues --    0.00923   0.02701   0.04218   0.05022   0.06000
 Alpha virt. eigenvalues --    0.07268   0.07650   0.09294   0.09826   0.10177
 Alpha virt. eigenvalues --    0.10533   0.11484   0.13863   0.14021   0.14612

 Mulliken charges:
               1
     1  C   -0.058437
     2  O   -0.590480
     3  C   -0.599058
     4  H    0.217079
     5  H    0.229592
     6  H    0.220321
     7  Cl  -0.232641
     8  C    0.485182
     9  N   -0.671557
 Sum of Mulliken charges =  -1.00000

 Dipole moment (field-independent basis, Debye):
    X=             -1.6805    Y=              1.7963    Z=             -3.9311  Tot=              4.6373
 Quadrupole moment (field-independent basis, Debye-Ang):
   XX=            -59.8651   YY=            -50.9672   ZZ=            -52.5901
   XY=              2.8729   XZ=              0.6784   YZ=             -5.4238

 Normal termination of Gaussian 16 at Tue Jan  7 23:56:41 2020.
