 Gaussian 16, Revision A.03,
 Gaussian 16:  AS64L-G16RevA.03 25-Dec-2016

 ----------------------------------------------------------------------
 #p opt=modredundant b3lyp/6-31+g(d) scrf=(smd, solvent=tetrahydrofuran
 )
 ----------------------------------------------------------------------

 -----
 title
 -----
 Symbolic Z-matrix:
 Charge = -1 Multiplicity = 1

 SCF Done:  E(RB3LYP) =  -706.345420801     A.U. after   14 cycles
 SCF Done:  E(RB3LYP) =  -706.382047347     A.U. after   13 cycles
 SCF Done:  E(RB3LYP) =  -706.392431148     A.U. after   12 cycles
 SCF Done:  E(RB3LYP) =  -706.396574356     A.U. after   11 cycles
 SCF Done:  E(RB3LYP) =  -706.397098456     A.U. after   11 cycles
 SCF Done:  E(RB3LYP) =  -706.397112480     A.U. after   10 cycles
 SCF Done:  E(RB3LYP) =  -706.397119127     A.U. after   10 cycles
 SCF Done:  E(RB3LYP) =  -706.397120511     A.U. after   10 cycles
 SCF Done:  E(RB3LYP) =  -706.397124958     A.U. after   10 cycles
 SCF Done:  E(RB3LYP) =  -706.397135352     A.U. after   10 cycles
 SCF Done:  E(RB3LYP) =  -706.397153285     A.U. after    9 cycles
 SCF Done:  E(RB3LYP) =  -706.397153593     A.U. after    8 cycles
 SCF Done:  E(RB3LYP) =  -706.397154129     A.U. after    8 cycles
 SCF Done:  E(RB3LYP) =  -706.397154334     A.U. after    8 cycles
 SCF Done:  E(RB3LYP) =  -706.397154854     A.U. after    9 cycles
 SCF Done:  E(RB3LYP) =  -706.397154743     A.U. after    8 cycles
 SCF Done:  E(RB3LYP) =  -706.397154780     A.U. after    9 cycles
 SCF Done:  E(RB3LYP) =  -706.397154688     A.U. after    8 cycles
 SCF Done:  E(RB3LYP) =  -706.397154369     A.U. after    9 cycles
 SCF Done:  E(RB3LYP) =  -706.397154609     A.U. after    8 cycles
 Optimization completed.
    -- Stationary point found.

                         Standard orientation:
 ---------------------------------------------------------------------
 Center     Atomic      Atomic             Coordinates (Angstroms)
 Number     Number       Type             X           Y           Z
 ---------------------------------------------------------------------
      1          6           0       -0.102450    0.879971    0.247999
      2          8           0       -0.097946    1.146899    1.366001
      3          6           0       -0.071738    1.322993   -1.147725
      4          1           0        0.041103    0.479279   -1.822853
      5          1           0       -1.020099    1.841623   -1.335657
      6          1           0        0.775321    2.013846   -1.240841
      7         17           0       -1.907535   -0.968138   -0.045534
      8          6           0        2.092698   -0.489873   -0.006660
      9          7           0        3.129181   -1.047163   -0.045182
 ---------------------------------------------------------------------

 The electronic state is 1-A.
 Alpha  occ. eigenvalues -- -101.44728 -19.25022 -14.27377 -10.37608 -10.22460
 Alpha  occ. eigenvalues --  -10.14237  -9.36086  -7.12054  -7.11769  -7.11756
 Alpha  occ. eigenvalues --   -1.15602  -0.83029  -0.79161  -0.69972  -0.56789
 Alpha  occ. eigenvalues --   -0.49902  -0.49439  -0.48804  -0.41706  -0.41384
 Alpha  occ. eigenvalues --   -0.36290  -0.27886  -0.27851  -0.25446  -0.24623
 Alpha  occ. eigenvalues --   -0.23806  -0.23763
 Alpha virt. eigenvalues --   -0.06484  -0.03184   0.02488   0.04786   0.05133
 Alpha virt. eigenvalues --    0.05319   0.07528   0.07929   0.08735   0.09767
 Alpha virt. eigenvalues --    0.09944   0.10884   0.11191   0.12597   0.13346

 Mulliken charges:
               1
     1  C    0.418382
     2  O   -0.142288
     3  C   -0.603234
     4  H    0.319514
     5  H    0.296488
     6  H    0.296298
     7  Cl  -0.703994
     8  C   -0.226199
     9  N   -0.654967
 Sum of Mulliken charges =  -1.00000

 Dipole moment (field-independent basis, Debye):
    X=             -4.2686    Y=              9.7548    Z=             -2.5559  Tot=             10.9503
 Quadrupole moment (field-independent basis, Debye-Ang):
   XX=            -91.6613   YY=            -49.0845   ZZ=            -44.9918
   XY=              3.7265   XZ=              0.4205   YZ=             -4.1074

 Normal termination of Gaussian 16 at Wed Jan  8 01:57:44 2020.
