 Gaussian 16, Revision A.03,
 Gaussian 16:  AS64L-G16RevA.03 25-Dec-2016

 ----------------------------------------------------------------------
 #p opt=modredundant b3lyp/6-31+g(d) scrf=(smd, solvent=tetrahydrofuran
 )
 ----------------------------------------------------------------------

 -----
 title
 -----
 Symbolic Z-matrix:
 Charge = -1 Multiplicity = 1

 SCF Done:  E(RB3LYP) =  -706.395026771     A.U. after   14 cycles
 SCF Done:  E(RB3LYP) =  -706.411955973     A.U. after   12 cycles
 SCF Done:  E(RB3LYP) =  -706.414181268     A.U. after   12 cycles
 SCF Done:  E(RB3LYP) =  -706.414468445     A.U. after   11 cycles
 SCF Done:  E(RB3LYP) =  -706.414502475     A.U. after   10 cycles
 SCF Done:  E(RB3LYP) =  -706.414522608     A.U. after   10 cycles
 SCF Done:  E(RB3LYP) =  -706.414526852     A.U. after   10 cycles
 SCF Done:  E(RB3LYP) =  -706.414529120     A.U. after   10 cycles
 SCF Done:  E(RB3LYP) =  -706.414529157     A.U. after    9 cycles
 Optimization completed.
    -- Stationary point found.

                         Standard orientation:
 ---------------------------------------------------------------------
 Center     Atomic      Atomic             Coordinates (Angstroms)
 Number     Number       Type             X           Y           Z
 ---------------------------------------------------------------------
      1          6           0       -0.150798    0.632148    0.247480
      2          8           0       -0.241472    1.038276    1.374887
      3          6           0       -0.298677    1.428408   -1.024322
      4          1           0       -0.117615    0.818129   -1.908867
      5          1           0       -1.314095    1.840148   -1.058085
      6          1           0        0.422128    2.253959   -0.988703
      7         17           0       -1.326480   -1.075533   -0.086583
      8          6           0        1.599770   -0.288427   -0.049264
      9          7           0        2.655677   -0.795308   -0.087841
 ---------------------------------------------------------------------

 The electronic state is 1-A.
 Alpha  occ. eigenvalues -- -101.46987 -19.13442 -14.29505 -10.31541 -10.17908
 Alpha  occ. eigenvalues --  -10.17391  -9.38560  -7.14682  -7.14130  -7.14120
 Alpha  occ. eigenvalues --   -1.04288  -0.85445  -0.75664  -0.71579  -0.52931
 Alpha  occ. eigenvalues --   -0.45950  -0.43679  -0.42616  -0.38066  -0.36438
 Alpha  occ. eigenvalues --   -0.34898  -0.30185  -0.29769  -0.26309  -0.25971
 Alpha  occ. eigenvalues --   -0.24655  -0.24507
 Alpha virt. eigenvalues --   -0.00625   0.02299   0.03726   0.05328   0.05720
 Alpha virt. eigenvalues --    0.06912   0.07492   0.08098   0.09253   0.10054
 Alpha virt. eigenvalues --    0.10390   0.10542   0.11561   0.13111   0.13773

 Mulliken charges:
               1
     1  C    0.191769
     2  O   -0.325836
     3  C   -0.578262
     4  H    0.249124
     5  H    0.245193
     6  H    0.245373
     7  Cl  -0.394506
     8  C    0.030290
     9  N   -0.663145
 Sum of Mulliken charges =  -1.00000

 Dipole moment (field-independent basis, Debye):
    X=             -3.5116    Y=              4.6866    Z=             -2.7975  Tot=              6.4901
 Quadrupole moment (field-independent basis, Debye-Ang):
   XX=            -69.7833   YY=            -50.2368   ZZ=            -48.9435
   XY=              2.5393   XZ=              1.4560   YZ=             -4.6098

 Normal termination of Gaussian 16 at Wed Jan  8 00:36:42 2020.
