 Gaussian 16, Revision A.03,
 Gaussian 16:  AS64L-G16RevA.03 25-Dec-2016

 ----------------------------------------------------------------------
 #p opt=modredundant b3lyp/6-31+g(d) scrf=(smd, solvent=tetrahydrofuran
 )
 ----------------------------------------------------------------------

 -----
 title
 -----
 Symbolic Z-matrix:
 Charge = -1 Multiplicity = 1

 SCF Done:  E(RB3LYP) =  -706.400714866     A.U. after   14 cycles
 SCF Done:  E(RB3LYP) =  -706.405668881     A.U. after   12 cycles
 SCF Done:  E(RB3LYP) =  -706.406191862     A.U. after   12 cycles
 SCF Done:  E(RB3LYP) =  -706.406227842     A.U. after   11 cycles
 SCF Done:  E(RB3LYP) =  -706.406238386     A.U. after   10 cycles
 SCF Done:  E(RB3LYP) =  -706.406238940     A.U. after    9 cycles
 Optimization completed.
    -- Stationary point found.

                         Standard orientation:
 ---------------------------------------------------------------------
 Center     Atomic      Atomic             Coordinates (Angstroms)
 Number     Number       Type             X           Y           Z
 ---------------------------------------------------------------------
      1          6           0        0.031402    0.350594    0.200892
      2          8           0        0.035554    0.803204    1.434039
      3          6           0       -0.165123    1.456985   -0.885649
      4          1           0       -0.178194    1.063235   -1.909205
      5          1           0       -1.113818    1.962066   -0.676796
      6          1           0        0.650352    2.183093   -0.789384
      7         17           0       -1.282370   -0.839947   -0.109933
      8          6           0        1.210843   -0.352181   -0.073021
      9          7           0        2.242114   -0.869616   -0.240201
 ---------------------------------------------------------------------

 The electronic state is 1-A.
 Alpha  occ. eigenvalues -- -101.49399 -19.04609 -14.31875 -10.26512 -10.20954
 Alpha  occ. eigenvalues --  -10.15726  -9.41249  -7.17487  -7.16730  -7.16700
 Alpha  occ. eigenvalues --   -0.95387  -0.88312  -0.80196  -0.70235  -0.62814
 Alpha  occ. eigenvalues --   -0.46207  -0.42379  -0.39903  -0.37027  -0.36078
 Alpha  occ. eigenvalues --   -0.35079  -0.31735  -0.31154  -0.27537  -0.26906
 Alpha  occ. eigenvalues --   -0.20098  -0.18959
 Alpha virt. eigenvalues --    0.02102   0.02704   0.04379   0.05081   0.06083
 Alpha virt. eigenvalues --    0.07274   0.07628   0.09411   0.09848   0.10129
 Alpha virt. eigenvalues --    0.10462   0.11445   0.14008   0.14168   0.14682

 Mulliken charges:
               1
     1  C   -0.065140
     2  O   -0.632154
     3  C   -0.610634
     4  H    0.213976
     5  H    0.226410
     6  H    0.219184
     7  Cl  -0.131740
     8  C    0.465614
     9  N   -0.685516
 Sum of Mulliken charges =  -1.00000

 Dipole moment (field-independent basis, Debye):
    X=             -2.3128    Y=              1.2320    Z=             -4.2455  Tot=              4.9891
 Quadrupole moment (field-independent basis, Debye-Ang):
   XX=            -59.6493   YY=            -50.1228   ZZ=            -53.3956
   XY=              3.1863   XZ=              1.0118   YZ=             -5.2819

 Normal termination of Gaussian 16 at Tue Jan  7 23:36:55 2020.
