 Gaussian 16, Revision A.03,
 Gaussian 16:  AS64L-G16RevA.03 25-Dec-2016

 ----------------------------------------------------------------------
 #p opt=modredundant b3lyp/6-31+g(d) scrf=(smd, solvent=tetrahydrofuran
 )
 ----------------------------------------------------------------------

 -----
 title
 -----
 Symbolic Z-matrix:
 Charge = -1 Multiplicity = 1

 SCF Done:  E(RB3LYP) =  -706.418420578     A.U. after   14 cycles
 SCF Done:  E(RB3LYP) =  -706.431556956     A.U. after   12 cycles
 SCF Done:  E(RB3LYP) =  -706.433761405     A.U. after   12 cycles
 SCF Done:  E(RB3LYP) =  -706.433887204     A.U. after   11 cycles
 SCF Done:  E(RB3LYP) =  -706.433894987     A.U. after   10 cycles
 SCF Done:  E(RB3LYP) =  -706.433896352     A.U. after    9 cycles
 SCF Done:  E(RB3LYP) =  -706.433896409     A.U. after    8 cycles
 Optimization completed.
    -- Stationary point found.

                         Standard orientation:
 ---------------------------------------------------------------------
 Center     Atomic      Atomic             Coordinates (Angstroms)
 Number     Number       Type             X           Y           Z
 ---------------------------------------------------------------------
      1          6           0        0.087777    0.558409    0.221756
      2          8           0        0.053172    1.018197    1.376575
      3          6           0       -0.173364    1.448919   -0.989730
      4          1           0       -0.175756    0.891077   -1.929743
      5          1           0       -1.136514    1.951684   -0.859167
      6          1           0        0.618665    2.209293   -1.024894
      7         17           0       -1.377052   -0.921479   -0.050654
      8          6           0        1.333883   -0.402357   -0.068327
      9          7           0        2.312622   -1.023185   -0.188553
 ---------------------------------------------------------------------

 The electronic state is 1-A.
 Alpha  occ. eigenvalues -- -101.46044 -19.09243 -14.32263 -10.29272 -10.21356
 Alpha  occ. eigenvalues --  -10.16546  -9.37675  -7.13751  -7.13266  -7.13246
 Alpha  occ. eigenvalues --   -0.99650  -0.88617  -0.75210  -0.70435  -0.58921
 Alpha  occ. eigenvalues --   -0.45709  -0.42359  -0.40545  -0.37901  -0.35701
 Alpha  occ. eigenvalues --   -0.35364  -0.32087  -0.31991  -0.25307  -0.25082
 Alpha  occ. eigenvalues --   -0.23183  -0.22454
 Alpha virt. eigenvalues --    0.00211   0.02613   0.04302   0.04577   0.05764
 Alpha virt. eigenvalues --    0.07059   0.07211   0.08871   0.09834   0.10235
 Alpha virt. eigenvalues --    0.10552   0.11143   0.13090   0.13860   0.14377

 Mulliken charges:
               1
     1  C    0.121758
     2  O   -0.468502
     3  C   -0.602486
     4  H    0.228810
     5  H    0.237577
     6  H    0.228957
     7  Cl  -0.438643
     8  C    0.329889
     9  N   -0.637359
 Sum of Mulliken charges =  -1.00000

 Dipole moment (field-independent basis, Debye):
    X=             -0.6943    Y=              3.3861    Z=             -3.3197  Tot=              4.7925
 Quadrupole moment (field-independent basis, Debye-Ang):
   XX=            -62.7328   YY=            -52.0448   ZZ=            -50.7174
   XY=              2.0742   XZ=              0.8374   YZ=             -5.3237

 Normal termination of Gaussian 16 at Wed Jan  8 00:32:54 2020.
