 Gaussian 16, Revision A.03,
 Gaussian 16:  AS64L-G16RevA.03 25-Dec-2016

 ----------------------------------------------------------------------
 #p opt=modredundant b3lyp/6-31+g(d) scrf=(smd, solvent=tetrahydrofuran
 )
 ----------------------------------------------------------------------

 -----
 title
 -----
 Symbolic Z-matrix:
 Charge = -1 Multiplicity = 1

 SCF Done:  E(RB3LYP) =  -706.357612000     A.U. after   14 cycles
 SCF Done:  E(RB3LYP) =  -706.390936480     A.U. after   12 cycles
 SCF Done:  E(RB3LYP) =  -706.399457208     A.U. after   12 cycles
 SCF Done:  E(RB3LYP) =  -706.402421972     A.U. after   11 cycles
 SCF Done:  E(RB3LYP) =  -706.402668547     A.U. after   11 cycles
 SCF Done:  E(RB3LYP) =  -706.402668959     A.U. after   10 cycles
 SCF Done:  E(RB3LYP) =  -706.402668736     A.U. after   10 cycles
 SCF Done:  E(RB3LYP) =  -706.402672897     A.U. after   10 cycles
 SCF Done:  E(RB3LYP) =  -706.402679280     A.U. after   10 cycles
 SCF Done:  E(RB3LYP) =  -706.402688252     A.U. after   10 cycles
 SCF Done:  E(RB3LYP) =  -706.402699766     A.U. after    9 cycles
 SCF Done:  E(RB3LYP) =  -706.402691167     A.U. after   11 cycles
 SCF Done:  E(RB3LYP) =  -706.402703145     A.U. after   10 cycles
 SCF Done:  E(RB3LYP) =  -706.402705035     A.U. after    9 cycles
 SCF Done:  E(RB3LYP) =  -706.402699043     A.U. after   10 cycles
 SCF Done:  E(RB3LYP) =  -706.402453680     A.U. after   11 cycles
 SCF Done:  E(RB3LYP) =  -706.402697607     A.U. after   10 cycles
 SCF Done:  E(RB3LYP) =  -706.402704853     A.U. after    6 cycles
 SCF Done:  E(RB3LYP) =  -706.402705643     A.U. after    9 cycles
 SCF Done:  E(RB3LYP) =  -706.402705600     A.U. after    9 cycles
 Optimization completed.
    -- Stationary point found.

                         Standard orientation:
 ---------------------------------------------------------------------
 Center     Atomic      Atomic             Coordinates (Angstroms)
 Number     Number       Type             X           Y           Z
 ---------------------------------------------------------------------
      1          6           0        0.016022    0.893446    0.241907
      2          8           0       -0.062479    1.238370    1.346801
      3          6           0       -0.078524    1.395891   -1.142584
      4          1           0       -0.012979    0.583495   -1.860522
      5          1           0       -1.033928    1.923849   -1.238862
      6          1           0        0.757128    2.094650   -1.279287
      7         17           0       -1.732985   -1.010564   -0.033273
      8          6           0        1.842783   -0.483368    0.002469
      9          7           0        2.795525   -1.166455   -0.062979
 ---------------------------------------------------------------------

 The electronic state is 1-A.
 Alpha  occ. eigenvalues -- -101.43788 -19.22187 -14.28815 -10.35959 -10.21219
 Alpha  occ. eigenvalues --  -10.16352  -9.35163  -7.11102  -7.10857  -7.10851
 Alpha  occ. eigenvalues --   -1.12820  -0.84572  -0.77528  -0.69133  -0.55363
 Alpha  occ. eigenvalues --   -0.48421  -0.48107  -0.47147  -0.40269  -0.39955
 Alpha  occ. eigenvalues --   -0.36934  -0.29217  -0.29154  -0.26911  -0.23751
 Alpha  occ. eigenvalues --   -0.23064  -0.23003
 Alpha virt. eigenvalues --   -0.05241  -0.01438   0.02626   0.04958   0.05171
 Alpha virt. eigenvalues --    0.05640   0.07218   0.07924   0.08874   0.09964
 Alpha virt. eigenvalues --    0.10169   0.10508   0.10992   0.12737   0.13502

 Mulliken charges:
               1
     1  C    0.393431
     2  O   -0.174535
     3  C   -0.596712
     4  H    0.298476
     5  H    0.280950
     6  H    0.283506
     7  Cl  -0.728930
     8  C   -0.115561
     9  N   -0.640625
 Sum of Mulliken charges =  -1.00000

 Dipole moment (field-independent basis, Debye):
    X=             -1.8369    Y=              9.2564    Z=             -2.5960  Tot=              9.7875
 Quadrupole moment (field-independent basis, Debye-Ang):
   XX=            -80.6868   YY=            -51.0117   ZZ=            -45.8488
   XY=              2.9047   XZ=              0.6075   YZ=             -4.4924

 Normal termination of Gaussian 16 at Wed Jan  8 01:48:28 2020.
