 Gaussian 16, Revision A.03,
 Gaussian 16:  AS64L-G16RevA.03 25-Dec-2016

 ----------------------------------------------------------------------
 #p opt=modredundant b3lyp/6-31+g(d) scrf=(smd, solvent=tetrahydrofuran
 )
 ----------------------------------------------------------------------

 -----
 title
 -----
 Symbolic Z-matrix:
 Charge = -1 Multiplicity = 1

 SCF Done:  E(RB3LYP) =  -706.338615884     A.U. after   14 cycles
 SCF Done:  E(RB3LYP) =  -706.376477380     A.U. after   13 cycles
 SCF Done:  E(RB3LYP) =  -706.390693713     A.U. after   13 cycles
 SCF Done:  E(RB3LYP) =  -706.398108582     A.U. after   12 cycles
 SCF Done:  E(RB3LYP) =  -706.399947645     A.U. after   12 cycles
 SCF Done:  E(RB3LYP) =  -706.400361702     A.U. after   11 cycles
 SCF Done:  E(RB3LYP) =  -706.400460253     A.U. after   11 cycles
 SCF Done:  E(RB3LYP) =  -706.400488519     A.U. after   11 cycles
 SCF Done:  E(RB3LYP) =  -706.400497720     A.U. after   10 cycles
 SCF Done:  E(RB3LYP) =  -706.400511242     A.U. after   10 cycles
 SCF Done:  E(RB3LYP) =  -706.400516505     A.U. after   10 cycles
 SCF Done:  E(RB3LYP) =  -706.400519254     A.U. after    9 cycles
 SCF Done:  E(RB3LYP) =  -706.400525236     A.U. after   10 cycles
 SCF Done:  E(RB3LYP) =  -706.400527001     A.U. after    9 cycles
 SCF Done:  E(RB3LYP) =  -706.400526944     A.U. after    7 cycles
 Optimization completed.
    -- Stationary point found.

                         Standard orientation:
 ---------------------------------------------------------------------
 Center     Atomic      Atomic             Coordinates (Angstroms)
 Number     Number       Type             X           Y           Z
 ---------------------------------------------------------------------
      1          6           0        0.349332    0.947399    0.222568
      2          8           0        0.226858    1.238219    1.328397
      3          6           0        0.141286    1.283527   -1.184017
      4          1           0       -0.025551    0.377462   -1.763937
      5          1           0       -0.720058    1.957614   -1.244733
      6          1           0        1.057541    1.781491   -1.527410
      7         17           0       -2.194840   -0.810097    0.002583
      8          6           0        2.004318   -0.635391    0.008564
      9          7           0        2.887981   -1.403412   -0.059671
 ---------------------------------------------------------------------

 The electronic state is 1-A.
 Alpha  occ. eigenvalues -- -101.41704 -19.25316 -14.29770 -10.37906 -10.22482
 Alpha  occ. eigenvalues --  -10.17504  -9.33037  -7.08850  -7.08804  -7.08798
 Alpha  occ. eigenvalues --   -1.15898  -0.85509  -0.79390  -0.66944  -0.57162
 Alpha  occ. eigenvalues --   -0.50516  -0.50043  -0.49204  -0.41840  -0.41590
 Alpha  occ. eigenvalues --   -0.37943  -0.30043  -0.30001  -0.28052  -0.21706
 Alpha  occ. eigenvalues --   -0.21477  -0.21443
 Alpha virt. eigenvalues --   -0.05848  -0.04072   0.02247   0.04597   0.04639
 Alpha virt. eigenvalues --    0.05404   0.06736   0.07343   0.08645   0.09730
 Alpha virt. eigenvalues --    0.09935   0.10222   0.10743   0.12554   0.13312

 Mulliken charges:
               1
     1  C    0.611833
     2  O   -0.176205
     3  C   -0.696566
     4  H    0.323691
     5  H    0.293166
     6  H    0.301574
     7  Cl  -0.913670
     8  C   -0.121255
     9  N   -0.622566
 Sum of Mulliken charges =  -1.00000

 Dipole moment (field-independent basis, Debye):
    X=              2.3414    Y=             10.3440    Z=             -2.8590  Tot=             10.9842
 Quadrupole moment (field-independent basis, Debye-Ang):
   XX=            -91.6306   YY=            -51.2885   ZZ=            -44.8733
   XY=              3.9477   XZ=              0.0826   YZ=             -4.1857

 Normal termination of Gaussian 16 at Wed Jan  8 02:47:58 2020.
