 Gaussian 16, Revision A.03,
 Gaussian 16:  AS64L-G16RevA.03 25-Dec-2016

 ----------------------------------------------------------
 #p opt=(calcfc,ts,noeigentest) freq=noraman m062x/6-31g(d)
 ----------------------------------------------------------

 -----
 title
 -----
 Symbolic Z-matrix:
 Charge =  0 Multiplicity = 1

 SCF Done:  E(RM062X) =  -271.543425561     A.U. after   15 cycles
 SCF Done:  E(RM062X) =  -271.543533653     A.U. after   14 cycles
 SCF Done:  E(RM062X) =  -271.543535942     A.U. after   11 cycles
 Optimization completed.
    -- Stationary point found.
 Normal termination of Gaussian 16 at Thu Jan  9 14:36:13 2020.

 --------------------------------------------------------------------
 #P Geom=AllCheck Guess=TCheck SCRF=Check GenChk RM062X/6-31G(d) Freq
 --------------------------------------------------------------------

 Structure from the checkpoint file:  "/scratch/users/cwagen/cwagen_starting_TS/Gau-41850.chk"
 -----
 title
 -----
 Charge =  0 Multiplicity = 1

                         Standard orientation:
 ---------------------------------------------------------------------
 Center     Atomic      Atomic             Coordinates (Angstroms)
 Number     Number       Type             X           Y           Z
 ---------------------------------------------------------------------
      1          6           0        1.002319   -0.220902    0.467081
      2          6           0        1.848480    0.306390   -0.677500
      3          1           0        1.379212    0.020987    1.470098
      4          1           0        2.760904   -0.296547   -0.739942
      5          1           0        1.314514    0.194692   -1.624855
      6          1           0        2.132488    1.352872   -0.537951
      7          8           0        0.459833   -1.375265    0.331891
      8          6           0       -0.448190    1.131188    0.708704
      9          6           0       -1.221342    0.728613   -0.370752
     10          1           0        0.068073    2.086473    0.679186
     11          1           0       -0.749058    0.797426    1.699193
     12          6           0       -1.859359   -0.530107   -0.357284
     13          1           0       -1.055387    1.215562   -1.331620
     14          1           0       -2.393101   -0.846313   -1.249664
     15          1           0       -0.735895   -1.176815   -0.217301
     16          1           0       -2.331858   -0.837315    0.576242
 ---------------------------------------------------------------------

 SCF Done:  E(RM062X) =  -271.543535942     A.U. after    1 cycles

 The electronic state is 1-A.
 Alpha  occ. eigenvalues --  -19.61377 -10.61930 -10.57525 -10.55393 -10.53661
 Alpha  occ. eigenvalues --  -10.53523  -1.12887  -0.90829  -0.83268  -0.77423
 Alpha  occ. eigenvalues --   -0.66535  -0.64297  -0.55596  -0.54281  -0.53053
 Alpha  occ. eigenvalues --   -0.49679  -0.48396  -0.45452  -0.44512  -0.43853
 Alpha  occ. eigenvalues --   -0.42348  -0.33654  -0.31821  -0.30216
 Alpha virt. eigenvalues --    0.00716   0.11414   0.13531   0.15547   0.18376
 Alpha virt. eigenvalues --    0.18923   0.20395   0.21728   0.22625   0.25012
 Alpha virt. eigenvalues --    0.25456   0.27527   0.30387   0.33478   0.35629

 Mulliken charges:
               1
     1  C    0.160431
     2  C   -0.490330
     3  H    0.157327
     4  H    0.182982
     5  H    0.167107
     6  H    0.151599
     7  O   -0.552039
     8  C   -0.427356
     9  C   -0.033565
    10  H    0.175980
    11  H    0.188595
    12  C   -0.578047
    13  H    0.171858
    14  H    0.179370
    15  H    0.347517
    16  H    0.198572
 Sum of Mulliken charges =   0.00000

 Dipole moment (field-independent basis, Debye):
    X=             -0.1292    Y=              2.2018    Z=             -0.3928  Tot=              2.2403
 Quadrupole moment (field-independent basis, Debye-Ang):
   XX=            -37.1030   YY=            -41.7934   ZZ=            -36.4098
   XY=              2.5897   XZ=              0.6617   YZ=              0.7561

  Exact polarizability:  72.674   3.174  57.887   5.975   1.282  53.601
 Approx polarizability:  84.220   0.136  80.562  11.942   1.081  65.024

 ******    1 imaginary frequencies (negative Signs) ******

                      1                      2                      3
                      A                      A                      A
 Frequencies --  -1336.8708               110.8111               216.7014
 Red. masses --      1.4378                 2.7772                 1.0592
 Frc consts  --      1.5140                 0.0201                 0.0293
 IR Inten    --     58.2273                 1.1338                 0.5053

                      4                      5                      6
                      A                      A                      A
 Frequencies --    267.9060               366.7500               411.4806
 Red. masses --      2.5843                 2.8079                 2.1505
 Frc consts  --      0.1093                 0.2225                 0.2145
 IR Inten    --      3.8899                30.0996                 4.4625

                      7                      8                      9
                      A                      A                      A
 Frequencies --    459.1595               495.8868               506.4239
 Red. masses --      1.9424                 2.7857                 2.7797
 Frc consts  --      0.2413                 0.4036                 0.4200
 IR Inten    --      6.7494                62.7718                 7.8469

                     10                     11                     12
                      A                      A                      A
 Frequencies --    603.8262               679.2684               837.5687
 Red. masses --      3.3632                 1.5029                 1.3482
 Frc consts  --      0.7225                 0.4086                 0.5573
 IR Inten    --     13.7622                 6.6975                22.4343

                     13                     14                     15
                      A                      A                      A
 Frequencies --    926.3746               945.6520               993.3733
 Red. masses --      1.7414                 1.1507                 1.2126
 Frc consts  --      0.8805                 0.6063                 0.7050
 IR Inten    --     40.2183                 2.5848                 1.0100

                     16                     17                     18
                      A                      A                      A
 Frequencies --   1028.3324              1034.8249              1063.0366
 Red. masses --      1.2071                 1.3270                 1.6129
 Frc consts  --      0.7521                 0.8372                 1.0739
 IR Inten    --     14.8626                48.9983                 4.8990

                     19                     20                     21
                      A                      A                      A
 Frequencies --   1073.4125              1141.9387              1185.4208
 Red. masses --      1.3310                 1.8654                 1.4239
 Frc consts  --      0.9036                 1.4332                 1.1789
 IR Inten    --     65.7996                16.8617                46.4249

                     22                     23                     24
                      A                      A                      A
 Frequencies --   1283.8633              1311.7126              1343.5527
 Red. masses --      1.3337                 1.7185                 1.0746
 Frc consts  --      1.2952                 1.7421                 1.1429
 IR Inten    --     24.7207                 2.4980                26.1779

                     25                     26                     27
                      A                      A                      A
 Frequencies --   1369.1937              1422.5391              1460.9748
 Red. masses --      1.2241                 1.2992                 1.1556
 Frc consts  --      1.3521                 1.5490                 1.4533
 IR Inten    --     44.8658                 9.8524                 7.0549

                     28                     29                     30
                      A                      A                      A
 Frequencies --   1506.9588              1513.6066              1543.6167
 Red. masses --      1.0551                 1.0930                 1.2925
 Frc consts  --      1.4117                 1.4754                 1.8146
 IR Inten    --      2.8253                18.3503                 6.0099

                     31                     32                     33
                      A                      A                      A
 Frequencies --   1588.6136              1624.5027              1660.6567
 Red. masses --      1.5094                 1.8650                 2.9434
 Frc consts  --      2.2443                 2.8997                 4.7825
 IR Inten    --     16.9048               149.5719                99.2277

                     34                     35                     36
                      A                      A                      A
 Frequencies --   3069.9530              3086.1733              3158.1683
 Red. masses --      1.0852                 1.0379                 1.0600
 Frc consts  --      6.0258                 5.8241                 6.2290
 IR Inten    --     38.6484                10.7606                 2.5308

                     37                     38                     39
                      A                      A                      A
 Frequencies --   3159.3117              3177.5110              3181.4332
 Red. masses --      1.0999                 1.0662                 1.0949
 Frc consts  --      6.4680                 6.3426                 6.5291
 IR Inten    --     12.2640                 2.0149                19.2935

                     40                     41                     42
                      A                      A                      A
 Frequencies --   3189.4778              3248.3165              3265.6161
 Red. masses --      1.0915                 1.1107                 1.1157
 Frc consts  --      6.5419                 6.9047                 7.0100
 IR Inten    --      6.9622                 7.2911                 7.6768

 - Thermochemistry -
 -------------------
 Temperature   298.150 Kelvin.  Pressure   1.00000 Atm.
 Atom     1 has atomic number  6 and mass  12.00000

 Molecular mass:    86.07317 amu.
 Principal axes and moments of inertia in atomic units:
                           1         2         3
     Eigenvalues --   356.37971 642.31428 771.35238
           X            0.99761   0.06833  -0.00989
           Y           -0.06801   0.99724   0.02983
           Z            0.01190  -0.02909   0.99951
 This molecule is an asymmetric top.
 Rotational symmetry number  1.
 Rotational temperatures (Kelvin)      0.24304     0.13485     0.11229
 Rotational constants (GHZ):           5.06410     2.80975     2.33971
    1 imaginary frequencies ignored.
 Zero-point vibrational energy     361953.5 (Joules/Mol)
                                   86.50896 (Kcal/Mol)
 Warning -- explicit consideration of   9 degrees of freedom as
           vibrations may cause significant error
 Vibrational temperatures:    159.43   311.78   385.46   527.67   592.03
          (Kelvin)            660.63   713.47   728.63   868.77   977.32
                             1205.07  1332.85  1360.58  1429.24  1479.54
                             1488.88  1529.47  1544.40  1643.00  1705.56
                             1847.19  1887.26  1933.07  1969.96  2046.72
                             2102.02  2168.18  2177.74  2220.92  2285.66
                             2337.30  2389.31  4416.98  4440.31  4543.90
                             4545.54  4571.73  4577.37  4588.95  4673.60
                             4698.49

 Zero-point correction=                           0.137861 (Hartree/Particle)
 Thermal correction to Energy=                    0.144464
 Thermal correction to Enthalpy=                  0.145408
 Thermal correction to Gibbs Free Energy=         0.107985
 Sum of electronic and zero-point Energies=           -271.405675
 Sum of electronic and thermal Energies=              -271.399072
 Sum of electronic and thermal Enthalpies=            -271.398128
 Sum of electronic and thermal Free Energies=         -271.435551

                     E (Thermal)             CV                S
                      KCal/Mol        Cal/Mol-Kelvin    Cal/Mol-Kelvin
 Total                   90.652             24.893             78.763
 Electronic               0.000              0.000              0.000
 Translational            0.889              2.981             39.271
 Rotational               0.889              2.981             26.671
 Vibrational             88.875             18.932             12.822
 Vibration     1          0.607              1.941              3.255
 Vibration     2          0.646              1.816              1.986
 Vibration     3          0.673              1.732              1.610
 Vibration     4          0.740              1.541              1.093
 Vibration     5          0.775              1.445              0.921
 Vibration     6          0.817              1.341              0.769
 Vibration     7          0.851              1.259              0.668
 Vibration     8          0.862              1.236              0.642
 Vibration     9          0.962              1.024              0.443

 Optimization completed.
    -- Stationary point found.
 Normal termination of Gaussian 16 at Thu Jan  9 14:39:25 2020.
