 Gaussian 16, Revision A.03,
 Gaussian 16:  AS64L-G16RevA.03 25-Dec-2016

 ----------------------------------------------------------
 #p opt freq=noraman b3lyp/genecp empiricaldispersion=gd3bj
 ----------------------------------------------------------

 -------------------
 Title Card Required
 -------------------
 Symbolic Z-matrix:
 Charge =  0 Multiplicity = 1

 SCF Done:  E(RB3LYP) =  -153.746258289     A.U. after   15 cycles
 SCF Done:  E(RB3LYP) =  -153.797207403     A.U. after   13 cycles
 SCF Done:  E(RB3LYP) =  -153.805173019     A.U. after   13 cycles
 SCF Done:  E(RB3LYP) =  -153.830321209     A.U. after   14 cycles
 SCF Done:  E(RB3LYP) =  -153.830531032     A.U. after   12 cycles
 SCF Done:  E(RB3LYP) =  -153.831380099     A.U. after   13 cycles
 SCF Done:  E(RB3LYP) =  -153.832017612     A.U. after   11 cycles
 SCF Done:  E(RB3LYP) =  -153.832274469     A.U. after   12 cycles
 SCF Done:  E(RB3LYP) =  -153.832513812     A.U. after   13 cycles
 SCF Done:  E(RB3LYP) =  -153.832548279     A.U. after   11 cycles
 SCF Done:  E(RB3LYP) =  -153.832569337     A.U. after   11 cycles
 SCF Done:  E(RB3LYP) =  -153.832570872     A.U. after    9 cycles
 SCF Done:  E(RB3LYP) =  -153.832570971     A.U. after    8 cycles
 Optimization completed.
    -- Stationary point found.
 Normal termination of Gaussian 16 at Sun Aug  4 14:35:52 2019.

 ------------------------------------------------------------------
 #P Geom=AllCheck Guess=TCheck SCRF=Check GenChk RB3LYP/GenECP Freq
 ------------------------------------------------------------------

 Structure from the checkpoint file:  "/scratch/users/cwagen/cwagen_acetaldehyde/Gau-2218.chk"
 -------------------
 Title Card Required
 -------------------
 Charge =  0 Multiplicity = 1

                         Standard orientation:
 ---------------------------------------------------------------------
 Center     Atomic      Atomic             Coordinates (Angstroms)
 Number     Number       Type             X           Y           Z
 ---------------------------------------------------------------------
      1          6           0        0.234027    0.399620   -0.000002
      2          6           0       -1.170884   -0.148584   -0.000001
      3          1           0        0.300897    1.511802   -0.000007
      4          1           0       -1.713380    0.219214   -0.880918
      5          1           0       -1.154701   -1.240746   -0.000210
      6          1           0       -1.713256    0.218884    0.881135
      7          8           0        1.237697   -0.276922    0.000002
 ---------------------------------------------------------------------

 SCF Done:  E(RB3LYP) =  -153.832570971     A.U. after    1 cycles

 The electronic state is 1-A.
 Alpha  occ. eigenvalues --  -19.14658 -10.27609 -10.18995  -1.04595  -0.75374
 Alpha  occ. eigenvalues --   -0.58107  -0.47683  -0.44493  -0.43320  -0.39878
 Alpha  occ. eigenvalues --   -0.36412  -0.25480
 Alpha virt. eigenvalues --   -0.02146   0.10731   0.13116   0.15251   0.15439
 Alpha virt. eigenvalues --    0.25527   0.28177   0.52541   0.53955   0.58596
 Alpha virt. eigenvalues --    0.59704   0.66808   0.70724   0.75306   0.84431

 Mulliken charges:
               1
     1  C    0.244091
     2  C   -0.518834
     3  H    0.099274
     4  H    0.173093
     5  H    0.182102
     6  H    0.173104
     7  O   -0.352829
 Sum of Mulliken charges =   0.00000

 Dipole moment (field-independent basis, Debye):
    X=             -2.4130    Y=              1.0542    Z=              0.0000  Tot=              2.6332
 Quadrupole moment (field-independent basis, Debye-Ang):
   XX=            -20.4962   YY=            -17.7881   ZZ=            -17.5898
   XY=              0.8080   XZ=             -0.0001   YZ=              0.0000

  Exact polarizability:  28.784  -1.813  25.077   0.000   0.000  17.285
 Approx polarizability:  41.773  -7.746  34.717   0.000   0.000  23.225

                      1                      2                      3
                      A                      A                      A
 Frequencies --    157.1288               506.8430               780.0333
 Red. masses --      1.2402                 2.5504                 1.1259
 Frc consts  --      0.0180                 0.3860                 0.4036
 IR Inten    --      0.2782                12.9104                 0.6501

                      4                      5                      6
                      A                      A                      A
 Frequencies --    895.4411              1138.5427              1145.3704
 Red. masses --      2.1676                 2.0792                 1.7613
 Frc consts  --      1.0240                 1.5879                 1.3614
 IR Inten    --      8.1264                24.4850                 1.5350

                      7                      8                      9
                      A                      A                      A
 Frequencies --   1403.6647              1444.8050              1490.5271
 Red. masses --      1.2525                 1.2100                 1.0538
 Frc consts  --      1.4540                 1.4882                 1.3794
 IR Inten    --     18.2139                12.9761                16.9238

                     10                     11                     12
                      A                      A                      A
 Frequencies --   1500.2510              1846.5536              2898.8587
 Red. masses --      1.0474                 9.0323                 1.0837
 Frc consts  --      1.3890                18.1456                 5.3654
 IR Inten    --      9.3286               157.1699               138.7367

                     13                     14                     15
                      A                      A                      A
 Frequencies --   3044.1922              3100.1978              3164.7930
 Red. masses --      1.0378                 1.0991                 1.1022
 Frc consts  --      5.6664                 6.2241                 6.5040
 IR Inten    --      2.6158                 9.3207                10.5027

 - Thermochemistry -
 -------------------
 Temperature   298.150 Kelvin.  Pressure   1.00000 Atm.
 Atom     1 has atomic number  6 and mass  12.00000

 Molecular mass:    44.02621 amu.
 Principal axes and moments of inertia in atomic units:
                           1         2         3
     Eigenvalues --    31.73137 179.07651 199.63358
           X            0.99967   0.02567   0.00000
           Y           -0.02567   0.99967   0.00000
           Z            0.00000   0.00000   1.00000
 This molecule is an asymmetric top.
 Rotational symmetry number  1.
 Rotational temperatures (Kelvin)      2.72960     0.48367     0.43386
 Rotational constants (GHZ):          56.87562    10.07805     9.04027
 Zero-point vibrational energy     146645.4 (Joules/Mol)
                                   35.04910 (Kcal/Mol)
 Warning -- explicit consideration of   2 degrees of freedom as
           vibrations may cause significant error
 Vibrational temperatures:    226.07   729.23  1122.29  1288.34  1638.11
          (Kelvin)           1647.93  2019.56  2078.75  2144.54  2158.53
                             2656.78  4170.81  4379.91  4460.49  4553.43

 Zero-point correction=                           0.055854 (Hartree/Particle)
 Thermal correction to Energy=                    0.059743
 Thermal correction to Enthalpy=                  0.060687
 Thermal correction to Gibbs Free Energy=         0.030904
 Sum of electronic and zero-point Energies=           -153.776717
 Sum of electronic and thermal Energies=              -153.772828
 Sum of electronic and thermal Enthalpies=            -153.771884
 Sum of electronic and thermal Free Energies=         -153.801667

                     E (Thermal)             CV                S
                      KCal/Mol        Cal/Mol-Kelvin    Cal/Mol-Kelvin
 Total                   37.489             11.143             62.684
 Electronic               0.000              0.000              0.000
 Translational            0.889              2.981             37.273
 Rotational               0.889              2.981             21.655
 Vibrational             35.712              5.182              3.756
 Vibration     1          0.621              1.895              2.584
 Vibration     2          0.862              1.235              0.641

 Optimization completed.
    -- Stationary point found.
 Normal termination of Gaussian 16 at Sun Aug  4 14:36:25 2019.
