 Gaussian 16, Revision A.03,
 Gaussian 16:  ES64L-G16RevA.03 25-Dec-2016

 ----------------------------------------------------------------------
 #p opt freq=noraman b3lyp/6-31g(d) empiricaldispersion=gd3bj scrf=(smd
 ,solvent=diethylether)
 ----------------------------------------------------------------------

 -----
 title
 -----
 Symbolic Z-matrix:
 Charge =  0 Multiplicity = 1

 SCF Done:  E(RB3LYP) =  -1897.31351091     A.U. after   13 cycles
 SCF Done:  E(RB3LYP) =  -1897.33179698     A.U. after   12 cycles
 SCF Done:  E(RB3LYP) =  -1897.33894089     A.U. after   12 cycles
 SCF Done:  E(RB3LYP) =  -1897.33894627     A.U. after   12 cycles
 SCF Done:  E(RB3LYP) =  -1897.34005697     A.U. after   12 cycles
 SCF Done:  E(RB3LYP) =  -1897.34140591     A.U. after   11 cycles
 SCF Done:  E(RB3LYP) =  -1897.34298239     A.U. after   12 cycles
 SCF Done:  E(RB3LYP) =  -1897.34387763     A.U. after   11 cycles
 SCF Done:  E(RB3LYP) =  -1897.34417378     A.U. after   13 cycles
 SCF Done:  E(RB3LYP) =  -1897.34467787     A.U. after   11 cycles
 SCF Done:  E(RB3LYP) =  -1897.34560715     A.U. after    8 cycles
 SCF Done:  E(RB3LYP) =  -1897.34560793     A.U. after    8 cycles
 SCF Done:  E(RB3LYP) =  -1897.34560869     A.U. after    8 cycles
 SCF Done:  E(RB3LYP) =  -1897.34560946     A.U. after    8 cycles
 SCF Done:  E(RB3LYP) =  -1897.34560951     A.U. after    7 cycles
 SCF Done:  E(RB3LYP) =  -1897.34560934     A.U. after    7 cycles
 SCF Done:  E(RB3LYP) =  -1897.34560924     A.U. after    7 cycles
 SCF Done:  E(RB3LYP) =  -1897.34560902     A.U. after    7 cycles
 SCF Done:  E(RB3LYP) =  -1897.34560900     A.U. after    6 cycles
 Optimization completed.
    -- Stationary point found.
 Normal termination of Gaussian 16 at Tue Sep 24 12:32:23 2019.

 --------------------------------------------------------------------
 #P Geom=AllCheck Guess=TCheck SCRF=Check GenChk RB3LYP/6-31G(d) Freq
 --------------------------------------------------------------------

 Structure from the checkpoint file:  "/scratch/cwagen_Me2N-tBu-S-CF3_E_free_b3lyp_631gd/Gau-169853.chk"
 -----
 title
 -----
 Charge =  0 Multiplicity = 1

                         Standard orientation:
 ---------------------------------------------------------------------
 Center     Atomic      Atomic             Coordinates (Angstroms)
 Number     Number       Type             X           Y           Z
 ---------------------------------------------------------------------
      1          6           0       -5.255412   -0.339309    2.274916
      2          1           0       -5.039522   -0.815093    3.239100
      3          1           0       -4.624063    0.540220    2.182448
      4          7           0       -5.016273   -1.297237    1.204211
      5          6           0       -4.171955   -1.146914    0.152201
      6          8           0       -3.928608   -2.071059   -0.636420
      7          6           0       -3.507929    0.217352   -0.110389
      8          1           0       -3.353743    0.790372    0.800725
      9          6           0       -1.009047    0.273862   -0.071098
     10          6           0        1.436534   -0.224194   -0.362641
     11          6           0        2.035984    1.025143   -0.166041
     12          6           0        2.227493   -1.377739   -0.357504
     13          6           0        3.407972    1.098025    0.064546
     14          1           0        1.438450    1.924221   -0.198709
     15          6           0        3.601488   -1.281992   -0.143413
     16          1           0        1.765243   -2.347959   -0.507958
     17          6           0        4.205014   -0.046541    0.079942
     18          1           0        5.271195    0.023504    0.257055
     19          6           0        4.446655   -2.522680   -0.205712
     20          6           0        4.032268    2.436493    0.346392
     21          9           0        5.548010   -2.424691    0.569774
     22          9           0        3.766756   -3.621111    0.193636
     23          9           0        4.877892   -2.771359   -1.466805
     24          9           0        5.321244    2.487986   -0.059849
     25          9           0        4.030092    2.721110    1.670345
     26          9           0        3.375678    3.443454   -0.270443
     27          7           0        0.064609   -0.372274   -0.637580
     28          7           0       -2.183186   -0.092854   -0.630847
     29          6           0       -4.326009    1.101364   -1.114496
     30          6           0       -3.580095    2.432926   -1.296119
     31          6           0       -4.470878    0.410064   -2.479675
     32          6           0       -5.721705    1.386836   -0.537366
     33          1           0       -3.477746    2.966813   -0.345470
     34          1           0       -2.576698    2.277457   -1.704031
     35          1           0       -4.130999    3.076978   -1.991691
     36          1           0       -5.002946   -0.542248   -2.402007
     37          1           0       -5.029250    1.059664   -3.163510
     38          1           0       -3.493505    0.215828   -2.935778
     39          1           0       -6.274056    2.044766   -1.217774
     40          1           0       -6.309978    0.471692   -0.412090
     41          1           0       -5.659769    1.892392    0.432613
     42          1           0       -2.197551   -0.901531   -1.248791
     43          1           0       -0.155870   -1.173827   -1.219957
     44          6           0       -5.701834   -2.572936    1.377563
     45          1           0       -6.765019   -2.391889    1.570977
     46          1           0       -5.586657   -3.167017    0.473019
     47          1           0       -5.281307   -3.123330    2.228837
     48          1           0       -6.304127   -0.019900    2.274742
     49         16           0       -0.875474    1.397928    1.187035
 ---------------------------------------------------------------------

 SCF Done:  E(RB3LYP) =  -1897.34560900     A.U. after    1 cycles

 The electronic state is 1-A.
 Alpha  occ. eigenvalues --  -88.82253 -24.73007 -24.72997 -24.72733 -24.72733
 Alpha  occ. eigenvalues --  -24.72423 -24.72133 -19.11489 -14.38765 -14.37199
 Alpha  occ. eigenvalues --  -14.37178 -10.43800 -10.43524 -10.31097 -10.28791
 Alpha  occ. eigenvalues --  -10.25538 -10.22977 -10.22468 -10.22305 -10.21616
 Alpha  occ. eigenvalues --  -10.21537 -10.21429 -10.21144 -10.20836 -10.20156
 Alpha  occ. eigenvalues --  -10.16993 -10.16572 -10.16425  -7.88506  -5.85082
 Alpha  occ. eigenvalues --   -5.84424  -5.84124  -1.30559  -1.30293  -1.22031
 Alpha  occ. eigenvalues --   -1.21748  -1.21521  -1.21262  -1.03731  -1.00120
 Alpha  occ. eigenvalues --   -0.93655  -0.93182  -0.88144  -0.82044  -0.80659
 Alpha  occ. eigenvalues --   -0.78048  -0.73983  -0.72675  -0.71537  -0.70794
 Alpha  occ. eigenvalues --   -0.70191  -0.68475  -0.68000  -0.67651  -0.64028
 Alpha  occ. eigenvalues --   -0.63764  -0.60761  -0.58826  -0.58388  -0.58180
 Alpha  occ. eigenvalues --   -0.58107  -0.57241  -0.56535  -0.55539  -0.53558
 Alpha  occ. eigenvalues --   -0.52410  -0.51345  -0.51111  -0.48917  -0.48369
 Alpha  occ. eigenvalues --   -0.48143  -0.47633  -0.46126  -0.45929  -0.45749
 Alpha  occ. eigenvalues --   -0.45636  -0.45463  -0.45059  -0.43066  -0.42749
 Alpha  occ. eigenvalues --   -0.42302  -0.42160  -0.41951  -0.41402  -0.41240
 Alpha  occ. eigenvalues --   -0.40838  -0.40668  -0.40234  -0.40159  -0.40134
 Alpha  occ. eigenvalues --   -0.40017  -0.39895  -0.38612  -0.38173  -0.38031
 Alpha  occ. eigenvalues --   -0.37569  -0.37181  -0.36906  -0.36326  -0.36230
 Alpha  occ. eigenvalues --   -0.35702  -0.33208  -0.32357  -0.32113  -0.30069
 Alpha  occ. eigenvalues --   -0.27888  -0.25885  -0.24425  -0.23721  -0.22080
 Alpha  occ. eigenvalues --   -0.20995
 Alpha virt. eigenvalues --   -0.03769  -0.03653   0.00688   0.02109   0.06824
 Alpha virt. eigenvalues --    0.08225   0.09921   0.10794   0.10905   0.11480
 Alpha virt. eigenvalues --    0.11788   0.13201   0.13373   0.14128   0.14549

 Mulliken charges:
               1
     1  C   -0.331380
     2  H    0.177340
     3  H    0.196618
     4  N   -0.410001
     5  C    0.616318
     6  O   -0.572709
     7  C   -0.062572
     8  H    0.191190
     9  C    0.383567
    10  C    0.344619
    11  C   -0.147257
    12  C   -0.206027
    13  C   -0.042341
    14  H    0.197475
    15  C   -0.025931
    16  H    0.182487
    17  C   -0.193537
    18  H    0.188275
    19  C    0.793248
    20  C    0.795571
    21  F   -0.270802
    22  F   -0.272865
    23  F   -0.266642
    24  F   -0.273913
    25  F   -0.263748
    26  F   -0.271554
    27  N   -0.710693
    28  N   -0.583354
    29  C    0.103502
    30  C   -0.455041
    31  C   -0.471439
    32  C   -0.470818
    33  H    0.154579
    34  H    0.156041
    35  H    0.145699
    36  H    0.159823
    37  H    0.147770
    38  H    0.144144
    39  H    0.153777
    40  H    0.154307
    41  H    0.151204
    42  H    0.363366
    43  H    0.374789
    44  C   -0.332201
    45  H    0.169838
    46  H    0.196627
    47  H    0.172445
    48  H    0.174823
    49  S   -0.354614
 Sum of Mulliken charges =   0.00000

 Dipole moment (field-independent basis, Debye):
    X=             -7.0807    Y=             -2.5797    Z=             -1.0346  Tot=              7.6066
 Quadrupole moment (field-independent basis, Debye-Ang):
   XX=           -150.9953   YY=           -180.2664   ZZ=           -165.6987
   XY=             -0.3092   XZ=            -13.1566   YZ=             -7.0033

  Exact polarizability: 357.616  -3.018 269.050  -2.162  19.347 209.049
 Approx polarizability: 386.382  -3.068 343.134   2.058  47.059 276.477

 ******    1 imaginary frequencies (negative Signs) ******

                      1                      2                      3
                      A                      A                      A
 Frequencies --     -6.9511                 8.9895                14.4981
 Red. masses --     15.4880                 5.9305                14.7120
 Frc consts  --      0.0004                 0.0003                 0.0018
 IR Inten    --      0.0397                 0.0352                 0.0187

                      4                      5                      6
                      A                      A                      A
 Frequencies --     16.9247                34.0698                42.7936
 Red. masses --      6.1282                 6.4417                 3.1588
 Frc consts  --      0.0010                 0.0044                 0.0034
 IR Inten    --      0.1635                 3.5920                 0.9874

                      7                      8                      9
                      A                      A                      A
 Frequencies --     53.7025                60.4327                67.7744
 Red. masses --      4.8256                 7.6506                 2.4556
 Frc consts  --      0.0082                 0.0165                 0.0066
 IR Inten    --      2.2293                 9.7679                 3.6671

                     10                     11                     12
                      A                      A                      A
 Frequencies --     77.6387                84.9533               101.3543
 Red. masses --      2.8845                 1.7799                 8.8028
 Frc consts  --      0.0102                 0.0076                 0.0533
 IR Inten    --      4.3777                 0.6213                 0.2864

                     13                     14                     15
                      A                      A                      A
 Frequencies --    104.3792               127.7843               139.1621
 Red. masses --      5.6748                 1.2998                 4.8111
 Frc consts  --      0.0364                 0.0125                 0.0549
 IR Inten    --      0.7117                 0.1020                 7.3439

                     16                     17                     18
                      A                      A                      A
 Frequencies --    151.8100               157.4323               204.4975
 Red. masses --      6.8740                 5.6828                 9.3007
 Frc consts  --      0.0933                 0.0830                 0.2292
 IR Inten    --      2.7642                 0.8618                 7.8676

                     19                     20                     21
                      A                      A                      A
 Frequencies --    216.1821               230.6689               242.4320
 Red. masses --      1.7218                 1.7041                 3.4096
 Frc consts  --      0.0474                 0.0534                 0.1181
 IR Inten    --      0.5310                 1.1886                 0.8297

                     22                     23                     24
                      A                      A                      A
 Frequencies --    244.9829               260.8381               269.0616
 Red. masses --      5.8145                 1.3627                 2.6793
 Frc consts  --      0.2056                 0.0546                 0.1143
 IR Inten    --      0.6460                 0.6072                10.7062

                     25                     26                     27
                      A                      A                      A
 Frequencies --    282.4793               289.9649               290.9738
 Red. masses --      6.9899                 7.5041                 1.5103
 Frc consts  --      0.3286                 0.3717                 0.0753
 IR Inten    --      1.6998                 2.7792                 0.1526

                     28                     29                     30
                      A                      A                      A
 Frequencies --    299.0369               319.9178               322.2857
 Red. masses --      2.0147                 5.8346                 1.6203
 Frc consts  --      0.1061                 0.3518                 0.0992
 IR Inten    --      1.9198                 0.6873                 0.7594

                     31                     32                     33
                      A                      A                      A
 Frequencies --    338.7920               348.1484               372.8685
 Red. masses --      3.6530                 8.8779                 4.0693
 Frc consts  --      0.2470                 0.6340                 0.3333
 IR Inten    --     10.5002                 2.0182                26.5396

                     34                     35                     36
                      A                      A                      A
 Frequencies --    386.8185               394.5615               409.6888
 Red. masses --      3.3896                 6.2918                 3.0680
 Frc consts  --      0.2988                 0.5771                 0.3034
 IR Inten    --      4.9784                 4.7107                16.0172

                     37                     38                     39
                      A                      A                      A
 Frequencies --    412.1469               448.9494               454.3583
 Red. masses --      3.4243                 3.4337                 3.8692
 Frc consts  --      0.3427                 0.4078                 0.4706
 IR Inten    --     11.6708                 3.0629                 6.2656

                     40                     41                     42
                      A                      A                      A
 Frequencies --    466.5742               476.5850               496.9577
 Red. masses --      3.1948                 1.5134                11.9139
 Frc consts  --      0.4098                 0.2025                 1.7336
 IR Inten    --      6.6846                81.0332                 0.2023

                     43                     44                     45
                      A                      A                      A
 Frequencies --    519.5723               538.2813               558.7694
 Red. masses --      8.6131                 2.9755                 2.6591
 Frc consts  --      1.3699                 0.5080                 0.4892
 IR Inten    --      4.6791                14.6787               102.3994

                     46                     47                     48
                      A                      A                      A
 Frequencies --    569.0319               594.4448               616.1349
 Red. masses --      9.0019                 6.0720                 4.9393
 Frc consts  --      1.7173                 1.2642                 1.1048
 IR Inten    --     12.7996                 7.0244                 4.0173

                     49                     50                     51
                      A                      A                      A
 Frequencies --    625.3110               638.9440               666.3320
 Red. masses --      5.2576                 4.6822                 2.9280
 Frc consts  --      1.2112                 1.1262                 0.7660
 IR Inten    --      4.4755                44.5223               150.6414

                     52                     53                     54
                      A                      A                      A
 Frequencies --    672.7678               677.9474               686.3481
 Red. masses --      7.5242                12.5542                 5.7127
 Frc consts  --      2.0065                 3.3996                 1.5856
 IR Inten    --      3.0203                59.5351                28.3589

                     55                     56                     57
                      A                      A                      A
 Frequencies --    709.5044               715.3704               731.3080
 Red. masses --      3.1939                 7.8413                 4.8791
 Frc consts  --      0.9473                 2.3643                 1.5374
 IR Inten    --     19.3951                15.5818                19.2027

                     58                     59                     60
                      A                      A                      A
 Frequencies --    773.7642               807.7065               862.4586
 Red. masses --      6.5877                 3.6250                11.3795
 Frc consts  --      2.3238                 1.3934                 4.9871
 IR Inten    --     16.1054                 0.3306                26.6252

                     61                     62                     63
                      A                      A                      A
 Frequencies --    878.0713               900.2143               915.4879
 Red. masses --      4.2949                 1.6186                 2.6160
 Frc consts  --      1.9510                 0.7728                 1.2918
 IR Inten    --      1.6826                70.8391                 4.3624

                     64                     65                     66
                      A                      A                      A
 Frequencies --    918.4410               923.1716               953.0404
 Red. masses --      1.4395                 1.3756                 1.6661
 Frc consts  --      0.7154                 0.6907                 0.8916
 IR Inten    --      2.3225                 6.8510                 1.6997

                     67                     68                     69
                      A                      A                      A
 Frequencies --    953.7175               978.6409               980.5800
 Red. masses --      1.6403                 1.2903                 4.1358
 Frc consts  --      0.8791                 0.7281                 2.3430
 IR Inten    --      2.6244                 9.3111               129.7880

                     70                     71                     72
                      A                      A                      A
 Frequencies --    991.9213              1021.4318              1061.0740
 Red. masses --      2.8344                 6.1925                 1.4917
 Frc consts  --      1.6431                 3.8066                 0.9895
 IR Inten    --     37.8745                 2.6688                 4.8538

                     73                     74                     75
                      A                      A                      A
 Frequencies --   1064.6337              1087.1543              1121.8809
 Red. masses --      1.4527                 1.4009                 3.4364
 Frc consts  --      0.9701                 0.9755                 2.5483
 IR Inten    --     13.6735                 6.4601                 1.8024

                     76                     77                     78
                      A                      A                      A
 Frequencies --   1136.8284              1139.8943              1145.5433
 Red. masses --      1.2280                 2.1032                 2.8920
 Frc consts  --      0.9350                 1.6101                 2.2360
 IR Inten    --      1.6445                27.2161                48.3290

                     79                     80                     81
                      A                      A                      A
 Frequencies --   1158.2517              1161.8955              1176.2255
 Red. masses --     11.6037                12.3962                 2.1019
 Frc consts  --      9.1717                 9.8599                 1.7133
 IR Inten    --    234.9237               405.9201               126.5458

                     82                     83                     84
                      A                      A                      A
 Frequencies --   1185.0033              1191.0171              1196.8205
 Red. masses --      1.4241                 7.3800                 5.7828
 Frc consts  --      1.1783                 6.1680                 4.8803
 IR Inten    --      1.6353               165.0123               434.5599

                     85                     86                     87
                      A                      A                      A
 Frequencies --   1227.7656              1251.9143              1264.6589
 Red. masses --      2.0378                 2.3608                 2.5732
 Frc consts  --      1.8099                 2.1800                 2.4248
 IR Inten    --     49.8248               101.0797                17.0613

                     88                     89                     90
                      A                      A                      A
 Frequencies --   1268.4837              1284.7203              1290.4560
 Red. masses --      2.7656                 4.3550                 3.4575
 Frc consts  --      2.6218                 4.2350                 3.3923
 IR Inten    --     54.2844                57.4497               765.5924

                     91                     92                     93
                      A                      A                      A
 Frequencies --   1296.9486              1318.3869              1343.9538
 Red. masses --      1.8929                 1.7364                 1.6699
 Frc consts  --      1.8759                 1.7782                 1.7771
 IR Inten    --    123.2792                41.7882                50.0605

                     94                     95                     96
                      A                      A                      A
 Frequencies --   1363.3224              1370.5904              1385.8240
 Red. masses --      1.8193                 2.0289                 5.0017
 Frc consts  --      1.9923                 2.2455                 5.6596
 IR Inten    --    209.7741               154.4160                46.8124

                     97                     98                     99
                      A                      A                      A
 Frequencies --   1408.9254              1426.6681              1430.1986
 Red. masses --      8.2044                 1.2399                 1.2435
 Frc consts  --      9.5956                 1.4869                 1.4986
 IR Inten    --    514.2440                 2.2959                12.6236

                    100                    101                    102
                      A                      A                      A
 Frequencies --   1450.8605              1454.9236              1463.9184
 Red. masses --      1.3731                 1.2371                 1.6590
 Frc consts  --      1.7030                 1.5429                 2.0948
 IR Inten    --    104.0746                 7.2846               188.2929

                    103                    104                    105
                      A                      A                      A
 Frequencies --   1496.9879              1497.8329              1501.0865
 Red. masses --      2.2441                 1.4308                 1.0479
 Frc consts  --      2.9630                 1.8913                 1.3912
 IR Inten    --     69.4728                 6.6700                 7.6564

                    106                    107                    108
                      A                      A                      A
 Frequencies --   1504.2950              1511.0287              1514.4790
 Red. masses --      1.0682                 1.0491                 1.0562
 Frc consts  --      1.4243                 1.4112                 1.4273
 IR Inten    --      1.1691                 4.4161                12.3414

                    109                    110                    111
                      A                      A                      A
 Frequencies --   1516.2675              1516.9205              1523.3122
 Red. masses --      2.8864                 1.2285                 1.0570
 Frc consts  --      3.9098                 1.6656                 1.4451
 IR Inten    --    237.0854                 2.9704                 8.3051

                    112                    113                    114
                      A                      A                      A
 Frequencies --   1525.5968              1530.7102              1539.3358
 Red. masses --      1.0568                 1.0566                 1.0614
 Frc consts  --      1.4492                 1.4586                 1.4818
 IR Inten    --      2.0388                14.4009                22.2426

                    115                    116                    117
                      A                      A                      A
 Frequencies --   1559.3568              1564.2188              1607.0341
 Red. masses --      1.4600                 1.8198                 1.5837
 Frc consts  --      2.0917                 2.6234                 2.4097
 IR Inten    --    370.9308               474.5820               176.8420

                    118                    119                    120
                      A                      A                      A
 Frequencies --   1668.6659              1676.1324              1712.6807
 Red. masses --      5.8830                 4.9614                 7.0556
 Frc consts  --      9.6514                 8.2125                12.1938
 IR Inten    --     35.5975                 8.4089               392.2053

                    121                    122                    123
                      A                      A                      A
 Frequencies --   3047.9948              3050.6443              3051.7158
 Red. masses --      1.0398                 1.0357                 1.0360
 Frc consts  --      5.6915                 5.6789                 5.6846
 IR Inten    --     38.7819                21.0772                26.2328

                    124                    125                    126
                      A                      A                      A
 Frequencies --   3054.8831              3059.1318              3100.9510
 Red. masses --      1.0415                 1.0373                 1.1046
 Frc consts  --      5.7266                 5.7192                 6.2582
 IR Inten    --    107.2773                22.8407                61.6020

                    127                    128                    129
                      A                      A                      A
 Frequencies --   3105.5899              3113.3147              3115.7109
 Red. masses --      1.1038                 1.1019                 1.1021
 Frc consts  --      6.2726                 6.2927                 6.3034
 IR Inten    --     10.7299                20.7347                 8.1504

                    130                    131                    132
                      A                      A                      A
 Frequencies --   3120.4302              3125.5634              3133.1801
 Red. masses --      1.1010                 1.1027                 1.1022
 Frc consts  --      6.3165                 6.3470                 6.3748
 IR Inten    --    108.8291                34.8437                38.4651

                    133                    134                    135
                      A                      A                      A
 Frequencies --   3138.7569              3163.1526              3199.6915
 Red. masses --      1.1011                 1.0849                 1.0980
 Frc consts  --      6.3916                 6.3954                 6.6229
 IR Inten    --     37.7277                19.9716                 2.4672

                    136                    137                    138
                      A                      A                      A
 Frequencies --   3220.4682              3221.4232              3246.7333
 Red. masses --      1.0917                 1.0927                 1.0917
 Frc consts  --      6.6709                 6.6809                 6.7805
 IR Inten    --      2.0047                 9.3196                 1.0508

                    139                    140                    141
                      A                      A                      A
 Frequencies --   3276.4284              3522.1005              3569.4009
 Red. masses --      1.0919                 1.0755                 1.0761
 Frc consts  --      6.9060                 7.8611                 8.0776
 IR Inten    --      1.9633               141.6222                66.8542

 - Thermochemistry -
 -------------------
 Temperature   298.150 Kelvin.  Pressure   1.00000 Atm.
 Atom     1 has atomic number  6 and mass  12.00000

 Molecular mass:   429.13095 amu.
 Principal axes and moments of inertia in atomic units:
                           1         2         3
     Eigenvalues --  7499.48601********************
           X            1.00000  -0.00089  -0.00107
           Y            0.00086   0.99967  -0.02559
           Z            0.00109   0.02559   0.99967
 This molecule is an asymmetric top.
 Rotational symmetry number  1.
 Warning -- assumption of classical behavior for rotation
           may cause significant error
 Rotational temperatures (Kelvin)      0.01155     0.00341     0.00292
 Rotational constants (GHZ):           0.24065     0.07099     0.06080
    1 imaginary frequencies ignored.
 Zero-point vibrational energy     991908.4 (Joules/Mol)
                                  237.07180 (Kcal/Mol)
 Warning -- explicit consideration of  47 degrees of freedom as
           vibrations may cause significant error
 Vibrational temperatures:     12.93    20.86    24.35    49.02    61.57
          (Kelvin)             77.27    86.95    97.51   111.70   122.23
                              145.83   150.18   183.85   200.22   218.42
                              226.51   294.23   311.04   331.88   348.81
                              352.48   375.29   387.12   406.42   417.19
                              418.65   430.25   460.29   463.70   487.45
                              500.91   536.47   556.55   567.69   589.45
                              592.99   645.94   653.72   671.30   685.70
                              715.01   747.55   774.47   803.94   818.71
                              855.27   886.48   899.68   919.30   958.70
                              967.96   975.42   987.50  1020.82  1029.26
                             1052.19  1113.27  1162.11  1240.89  1263.35
                             1295.21  1317.18  1321.43  1328.24  1371.21
                             1372.19  1408.05  1410.84  1427.15  1469.61
                             1526.65  1531.77  1564.17  1614.14  1635.64
                             1640.05  1648.18  1666.47  1671.71  1692.33
                             1704.96  1713.61  1721.96  1766.48  1801.23
                             1819.56  1825.07  1848.43  1856.68  1866.02
                             1896.86  1933.65  1961.52  1971.97  1993.89
                             2027.13  2052.66  2057.74  2087.46  2093.31
                             2106.25  2153.83  2155.05  2159.73  2164.34
                             2174.03  2179.00  2181.57  2182.51  2191.71
                             2194.99  2202.35  2214.76  2243.57  2250.56
                             2312.16  2400.84  2411.58  2464.17  4385.38
                             4389.20  4390.74  4395.30  4401.41  4461.58
                             4468.25  4479.37  4482.81  4489.60  4496.99
                             4507.95  4515.97  4551.07  4603.64  4633.54
                             4634.91  4671.33  4714.05  5067.52  5135.57

 Zero-point correction=                           0.377798 (Hartree/Particle)
 Thermal correction to Energy=                    0.406171
 Thermal correction to Enthalpy=                  0.407116
 Thermal correction to Gibbs Free Energy=         0.314643
 Sum of electronic and zero-point Energies=          -1896.967811
 Sum of electronic and thermal Energies=             -1896.939438
 Sum of electronic and thermal Enthalpies=           -1896.938493
 Sum of electronic and thermal Free Energies=        -1897.030966

                     E (Thermal)             CV                S
                      KCal/Mol        Cal/Mol-Kelvin    Cal/Mol-Kelvin
 Total                  254.876            104.821            194.625
 Electronic               0.000              0.000              0.000
 Translational            0.889              2.981             44.060
 Rotational               0.889              2.981             36.979
 Vibrational            253.099             98.859            113.585
 Vibration     1          0.593              1.987              8.223
 Vibration     2          0.593              1.986              7.273
 Vibration     3          0.593              1.986              6.966
 Vibration     4          0.594              1.983              5.577
 Vibration     5          0.595              1.980              5.125
 Vibration     6          0.596              1.976              4.676
 Vibration     7          0.597              1.973              4.443
 Vibration     8          0.598              1.970              4.217
 Vibration     9          0.599              1.964              3.950
 Vibration    10          0.601              1.960              3.773
 Vibration    11          0.604              1.948              3.428
 Vibration    12          0.605              1.946              3.371
 Vibration    13          0.611              1.925              2.979
 Vibration    14          0.615              1.914              2.815
 Vibration    15          0.619              1.901              2.649
 Vibration    16          0.621              1.894              2.580
 Vibration    17          0.640              1.833              2.092
 Vibration    18          0.645              1.816              1.991
 Vibration    19          0.652              1.794              1.874
 Vibration    20          0.659              1.775              1.785
 Vibration    21          0.660              1.771              1.766
 Vibration    22          0.669              1.744              1.656
 Vibration    23          0.673              1.730              1.602
 Vibration    24          0.682              1.706              1.519
 Vibration    25          0.686              1.692              1.474
 Vibration    26          0.687              1.691              1.468
 Vibration    27          0.692              1.675              1.422
 Vibration    28          0.706              1.635              1.311
 Vibration    29          0.707              1.631              1.298
 Vibration    30          0.719              1.598              1.218
 Vibration    31          0.726              1.579              1.175
 Vibration    32          0.744              1.528              1.068
 Vibration    33          0.755              1.498              1.012
 Vibration    34          0.762              1.482              0.983
 Vibration    35          0.774              1.449              0.928
 Vibration    36          0.776              1.444              0.919
 Vibration    37          0.808              1.363              0.799
 Vibration    38          0.813              1.351              0.783
 Vibration    39          0.824              1.324              0.747
 Vibration    40          0.833              1.302              0.719
 Vibration    41          0.852              1.257              0.666
 Vibration    42          0.875              1.207              0.611
 Vibration    43          0.893              1.165              0.569
 Vibration    44          0.914              1.121              0.526
 Vibration    45          0.925              1.098              0.506
 Vibration    46          0.952              1.044              0.459
 Vibration    47          0.976              0.998              0.423

                           ! Non-Optimized Parameters !
 Normal termination of Gaussian 16 at Tue Sep 24 12:49:18 2019.
