 Gaussian 16, Revision A.03,
 Gaussian 16:  ES64L-G16RevA.03 25-Dec-2016

 ----------
 #p opt pm7
 ----------

 -----
 title
 -----
 Symbolic Z-matrix:
 Charge =  0 Multiplicity = 1

 SCF Done:  E(RPM7) = -0.468066548050     A.U. after   15 cycles
 SCF Done:  E(RPM7) = -0.537463815126     A.U. after   14 cycles
 SCF Done:  E(RPM7) = -0.560874759536     A.U. after   14 cycles
 SCF Done:  E(RPM7) = -0.572739780764     A.U. after   13 cycles
 SCF Done:  E(RPM7) = -0.576877616200     A.U. after   14 cycles
 SCF Done:  E(RPM7) = -0.579251337505     A.U. after   14 cycles
 SCF Done:  E(RPM7) = -0.580821695134     A.U. after   13 cycles
 SCF Done:  E(RPM7) = -0.582031775860     A.U. after   13 cycles
 SCF Done:  E(RPM7) = -0.583130815277     A.U. after   13 cycles
 SCF Done:  E(RPM7) = -0.583725644343     A.U. after   13 cycles
 SCF Done:  E(RPM7) = -0.588813264332     A.U. after   12 cycles
 SCF Done:  E(RPM7) = -0.588816760364     A.U. after   11 cycles
 SCF Done:  E(RPM7) = -0.588819952220     A.U. after   11 cycles
 SCF Done:  E(RPM7) = -0.588821216558     A.U. after   11 cycles
 SCF Done:  E(RPM7) = -0.588821625911     A.U. after   10 cycles
 SCF Done:  E(RPM7) = -0.588821849763     A.U. after   10 cycles
 SCF Done:  E(RPM7) = -0.588821932417     A.U. after   10 cycles
 SCF Done:  E(RPM7) = -0.588821972714     A.U. after    9 cycles
 SCF Done:  E(RPM7) = -0.588822000881     A.U. after    9 cycles
 SCF Done:  E(RPM7) = -0.588822022387     A.U. after    9 cycles
 Optimization completed.
    -- Stationary point found.

                         Standard orientation:
 ---------------------------------------------------------------------
 Center     Atomic      Atomic             Coordinates (Angstroms)
 Number     Number       Type             X           Y           Z
 ---------------------------------------------------------------------
      1          7           0        2.386597    0.908096   -0.104443
      2          1           0        1.678924    1.534959    0.241140
      3          6           0        1.973431   -0.376907   -0.648990
      4          1           0        2.529652   -0.564415   -1.625058
      5          6           0        2.364276   -1.530764    0.328639
      6          6           0        0.476424   -0.414295   -0.967676
      7          1           0        3.485504   -1.626755    0.457038
      8          8           0        0.058960   -0.881242   -2.003130
      9          7           0       -0.388486    0.158120   -0.050482
     10          1           0       -0.142406    0.316313    0.928642
     11          6           0       -1.825127    0.107817   -0.325453
     12          1           0       -2.006257    0.323559   -1.415143
     13          6           0       -2.371933   -1.314131    0.011966
     14          6           0       -2.447619    1.163829    0.589686
     15          1           0       -1.757275   -2.134671   -0.471189
     16          8           0       -2.002172    1.369537    1.688738
     17          8           0       -3.487102    1.928169    0.194091
     18          6           0       -3.999461    1.825897   -1.125068
     19          1           0       -4.747108    2.635711   -1.137836
     20          1           0       -3.225449    2.020902   -1.872690
     21          1           0       -4.496601    0.864472   -1.281650
     22          9           0       -3.662149   -1.402316   -0.351155
     23          9           0       -2.435727   -1.468668    1.342842
     24          9           0        1.756700   -1.363526    1.515344
     25          9           0        1.819543   -2.677822   -0.108833
     26          6           0        3.739371    1.236823   -0.109228
     27          8           0        4.545191    0.429383   -0.517476
     28          6           0        4.076853    2.592689    0.425322
     29          1           0        3.579142    3.397942   -0.132009
     30          1           0        3.809618    2.695481    1.487192
     31          1           0        5.163865    2.771449    0.349279
 ---------------------------------------------------------------------

 The electronic state is 1-A.
 Alpha  occ. eigenvalues --   -1.53150  -1.52976  -1.51738  -1.51582  -1.40452
 Alpha  occ. eigenvalues --   -1.36947  -1.17217  -1.15041  -1.14334  -1.13499
 Alpha  occ. eigenvalues --   -1.04127  -1.00479  -0.96474  -0.94081  -0.88479
 Alpha  occ. eigenvalues --   -0.85925  -0.78691  -0.78209  -0.76434  -0.72325
 Alpha  occ. eigenvalues --   -0.69348  -0.68575  -0.67559  -0.67474  -0.66790
 Alpha  occ. eigenvalues --   -0.66299  -0.64241  -0.63237  -0.62414  -0.61323
 Alpha  occ. eigenvalues --   -0.60530  -0.60503  -0.59935  -0.58314  -0.58035
 Alpha  occ. eigenvalues --   -0.57601  -0.57118  -0.56808  -0.55045  -0.54564
 Alpha  occ. eigenvalues --   -0.53986  -0.53414  -0.53058  -0.52114  -0.51785
 Alpha  occ. eigenvalues --   -0.50361  -0.50185  -0.49791  -0.48998  -0.43062
 Alpha  occ. eigenvalues --   -0.42699  -0.41812  -0.41223  -0.39558  -0.38872
 Alpha virt. eigenvalues --   -0.00101   0.00451   0.02256   0.02544   0.03412
 Alpha virt. eigenvalues --    0.04000   0.06318   0.07488   0.07586   0.07975
 Alpha virt. eigenvalues --    0.08370   0.08642   0.09518   0.09907   0.10949

 Mulliken charges:
               1
     1  N   -0.623300
     2  H    0.326740
     3  C   -0.063577
     4  H    0.214000
     5  C    0.253298
     6  C    0.556859
     7  H    0.183536
     8  O   -0.488882
     9  N   -0.590715
    10  H    0.346991
    11  C   -0.105652
    12  H    0.202253
    13  C    0.250077
    14  C    0.563596
    15  H    0.179886
    16  O   -0.427368
    17  O   -0.344645
    18  C   -0.196063
    19  H    0.165889
    20  H    0.134193
    21  H    0.148782
    22  F   -0.207744
    23  F   -0.188281
    24  F   -0.212910
    25  F   -0.201063
    26  C    0.621817
    27  O   -0.526804
    28  C   -0.525087
    29  H    0.178738
    30  H    0.183455
    31  H    0.191979
 Sum of Mulliken charges =   0.00000

 Dipole moment (field-independent basis, Debye):
    X=             -0.0073    Y=              3.9307    Z=             -1.7896  Tot=              4.3189
 N-N= 9.913778611911D+02 E-N=-1.615180129278D+03  KE=-2.853773974426D+02
 Leave Link  601 at Sat Dec 28 23:10:42 2019, MaxMem=  4294967296 cpu:               8.2 elap:               4.1
 (Enter /n/sw/g16_nehalem/g16/l9999.exe)
 1\1\GINC-HOLYSEAS01\FOpt\RPM7\ZDO\C9H12F4N2O4\CWAGEN\28-Dec-2019\0\\#p
  opt pm7\\title\\0,1\N,-2.5029875788,-2.0692269016,0.2686928772\H,-1.7
 003172136,-1.9122125085,0.8554235722\C,-3.2149165949,-0.9156802634,-0.
 2613622056\H,-3.4307017158,-1.0862979744,-1.3666116187\C,-4.5941360199
 ,-0.7543561245,0.4539224044\C,-2.3906187308,0.3701058643,-0.1551888801
 \H,-5.2875059429,-1.6280352965,0.257008581\O,-2.3142040201,1.153295342
 2,-1.0745672987\N,-1.6842378243,0.5835375032,1.0163257711\H,-1.9115282

 Normal termination of Gaussian 16 at Sat Dec 28 23:10:43 2019.
