 Gaussian 16, Revision A.03,
 Gaussian 16:  ES64L-G16RevA.03 25-Dec-2016

 ------------------------------------------------------------------
 #p opt freq=noraman m062x/6-31g(d) scrf=(smd,solvent=diethylether)
 ------------------------------------------------------------------

 -----
 title
 -----
 Symbolic Z-matrix:
 Charge =  0 Multiplicity = 1

 SCF Done:  E(RM062X) =  -1159.56906143     A.U. after   13 cycles
 Optimization completed.
    -- Stationary point found.
 Normal termination of Gaussian 16 at Mon Dec 30 11:34:27 2019.

 --------------------------------------------------------------------
 #P Geom=AllCheck Guess=TCheck SCRF=Check GenChk RM062X/6-31G(d) Freq
 --------------------------------------------------------------------

 Structure from the checkpoint file:  "/scratch/cwagen_conformer_final_00/Gau-197559.chk"
 -----
 title
 -----
 Charge =  0 Multiplicity = 1

                         Standard orientation:
 ---------------------------------------------------------------------
 Center     Atomic      Atomic             Coordinates (Angstroms)
 Number     Number       Type             X           Y           Z
 ---------------------------------------------------------------------
      1          7           0        2.195986    0.942707    0.035852
      2          1           0        2.555951    1.186274    0.952051
      3          6           0        2.056018   -0.462779   -0.291689
      4          1           0        1.990058   -0.552860   -1.380141
      5          6           0        3.267246   -1.243472    0.176390
      6          6           0        0.786448   -0.997754    0.380225
      7          1           0        3.392780   -1.255472    1.261161
      8          8           0        0.820739   -1.660730    1.402469
      9          7           0       -0.354655   -0.580755   -0.231413
     10          1           0       -0.260641    0.046533   -1.029263
     11          6           0       -1.593118   -0.550539    0.493667
     12          1           0       -1.582819   -1.341006    1.249934
     13          6           0       -1.737230    0.799467    1.197600
     14          6           0       -2.771447   -0.755396   -0.449399
     15          1           0       -2.598667    0.872296    1.862844
     16          8           0       -2.677918   -0.952525   -1.632065
     17          8           0       -3.920239   -0.659837    0.221851
     18          6           0       -5.107988   -0.802247   -0.570880
     19          1           0       -5.939682   -0.690118    0.122564
     20          1           0       -5.141960   -0.028094   -1.339968
     21          1           0       -5.130821   -1.787612   -1.040376
     22          9           0       -1.827334    1.769368    0.242821
     23          9           0       -0.605017    1.053510    1.903899
     24          9           0        3.144518   -2.520669   -0.264296
     25          9           0        4.384739   -0.716328   -0.388933
     26          6           0        1.532629    1.895893   -0.678863
     27          8           0        0.899941    1.618687   -1.691974
     28          6           0        1.600654    3.293271   -0.119529
     29          1           0        0.678283    3.473131    0.442883
     30          1           0        2.455580    3.441409    0.543411
     31          1           0        1.641015    4.005502   -0.944973
 ---------------------------------------------------------------------

 SCF Done:  E(RM062X) =  -1159.56906143     A.U. after    1 cycles

 The electronic state is 1-A.
 Alpha  occ. eigenvalues --  -25.27110 -25.26935 -25.26108 -25.26090 -19.69826
 Alpha  occ. eigenvalues --  -19.64498 -19.62299 -19.61686 -14.79791 -14.78956
 Alpha  occ. eigenvalues --  -10.71569 -10.70893 -10.69481 -10.66492 -10.66290
 Alpha  occ. eigenvalues --  -10.61231 -10.60507 -10.59838 -10.54552  -1.40184
 Alpha  occ. eigenvalues --   -1.39393  -1.33989  -1.33308  -1.24690  -1.17629
 Alpha  occ. eigenvalues --   -1.16521  -1.15242  -1.05264  -1.04259  -0.90382
 Alpha  occ. eigenvalues --   -0.87933  -0.82400  -0.82137  -0.77729  -0.74426
 Alpha  occ. eigenvalues --   -0.68772  -0.67918  -0.67111  -0.65226  -0.64612
 Alpha  occ. eigenvalues --   -0.63679  -0.63410  -0.62986  -0.61788  -0.60672
 Alpha  occ. eigenvalues --   -0.57655  -0.57112  -0.56220  -0.55456  -0.54183
 Alpha  occ. eigenvalues --   -0.53818  -0.52530  -0.51774  -0.50973  -0.50120
 Alpha  occ. eigenvalues --   -0.50108  -0.49730  -0.49062  -0.48735  -0.48167
 Alpha  occ. eigenvalues --   -0.47928  -0.46486  -0.45989  -0.45394  -0.43937
 Alpha  occ. eigenvalues --   -0.43342  -0.42549  -0.41061  -0.38110  -0.36439
 Alpha  occ. eigenvalues --   -0.36073  -0.33715  -0.32854  -0.31405
 Alpha virt. eigenvalues --    0.04457   0.04985   0.07321   0.12765   0.15321
 Alpha virt. eigenvalues --    0.15912   0.16691   0.17383   0.17714   0.17887
 Alpha virt. eigenvalues --    0.18417   0.18826   0.20248   0.20865   0.21483

 Mulliken charges:
               1
     1  N   -0.639695
     2  H    0.394854
     3  C   -0.202899
     4  H    0.247847
     5  C    0.492962
     6  C    0.655890
     7  H    0.180742
     8  O   -0.542143
     9  N   -0.654509
    10  H    0.406557
    11  C   -0.192367
    12  H    0.263596
    13  C    0.483729
    14  C    0.664966
    15  H    0.200657
    16  O   -0.480748
    17  O   -0.493381
    18  C   -0.263967
    19  H    0.204899
    20  H    0.201092
    21  H    0.200226
    22  F   -0.308603
    23  F   -0.302368
    24  F   -0.305190
    25  F   -0.309418
    26  C    0.605159
    27  O   -0.553799
    28  C   -0.577923
    29  H    0.216891
    30  H    0.192768
    31  H    0.214176
 Sum of Mulliken charges =   0.00000

 Dipole moment (field-independent basis, Debye):
    X=             -3.1018    Y=              3.0743    Z=              3.7002  Tot=              5.7240
 Quadrupole moment (field-independent basis, Debye-Ang):
   XX=            -84.7830   YY=           -107.4937   ZZ=           -113.5785
   XY=             11.5971   XZ=              1.6554   YZ=              5.6372

  Exact polarizability: 148.476  -2.695 126.575   7.115  -5.303 123.161
 Approx polarizability: 133.616  -3.613 124.597   9.547  -7.817 145.334

                      1                      2                      3
                      A                      A                      A
 Frequencies --     29.7843                42.1290                50.4107
 Red. masses --      6.8336                 7.1522                 7.1911
 Frc consts  --      0.0036                 0.0075                 0.0108
 IR Inten    --      1.3645                 1.7887                 1.3727

                      4                      5                      6
                      A                      A                      A
 Frequencies --     59.4030                68.9208                75.7024
 Red. masses --      6.6545                 7.7707                 7.1955
 Frc consts  --      0.0138                 0.0217                 0.0243
 IR Inten    --      0.7603                 1.1391                 1.8718

                      7                      8                      9
                      A                      A                      A
 Frequencies --     82.5126                91.6640               103.6210
 Red. masses --      2.1368                 2.7895                 5.6068
 Frc consts  --      0.0086                 0.0138                 0.0355
 IR Inten    --      8.8187                 4.9228                13.9961

                     10                     11                     12
                      A                      A                      A
 Frequencies --    111.3759               128.5459               141.9928
 Red. masses --      3.1652                 4.4183                 6.1730
 Frc consts  --      0.0231                 0.0430                 0.0733
 IR Inten    --      1.0604                 1.9632                12.7919

                     13                     14                     15
                      A                      A                      A
 Frequencies --    165.5703               173.6285               202.5408
 Red. masses --      2.0264                 1.7511                 5.7900
 Frc consts  --      0.0327                 0.0311                 0.1399
 IR Inten    --      5.2227                 6.8903                11.1169

                     16                     17                     18
                      A                      A                      A
 Frequencies --    233.0944               258.9644               278.3713
 Red. masses --      6.6744                 9.5015                 5.3388
 Frc consts  --      0.2137                 0.3754                 0.2437
 IR Inten    --      4.1373                 6.2350                 5.9971

                     19                     20                     21
                      A                      A                      A
 Frequencies --    301.5242               331.7704               352.5723
 Red. masses --      9.3022                 4.7954                 5.2535
 Frc consts  --      0.4983                 0.3110                 0.3848
 IR Inten    --      9.7652                64.1957                 1.0391

                     22                     23                     24
                      A                      A                      A
 Frequencies --    356.3166               382.2999               454.0346
 Red. masses --      7.3091                 8.5503                 2.2557
 Frc consts  --      0.5467                 0.7363                 0.2740
 IR Inten    --      1.6943                 4.9162                53.7708

                     25                     26                     27
                      A                      A                      A
 Frequencies --    467.0559               488.0938               533.2421
 Red. masses --      2.2341                 3.9556                10.2487
 Frc consts  --      0.2871                 0.5552                 1.7170
 IR Inten    --    156.7072                23.7087                24.3853

                     28                     29                     30
                      A                      A                      A
 Frequencies --    552.5947               577.7582               613.2229
 Red. masses --      4.0169                 6.4993                 2.8102
 Frc consts  --      0.7227                 1.2782                 0.6226
 IR Inten    --     30.3803                10.5981                 9.7141

                     31                     32                     33
                      A                      A                      A
 Frequencies --    637.7684               653.2389               680.3622
 Red. masses --      6.2490                 3.7843                 1.6810
 Frc consts  --      1.4976                 0.9514                 0.4584
 IR Inten    --     15.9161                 4.1010               120.1639

                     34                     35                     36
                      A                      A                      A
 Frequencies --    747.1085               787.7383               797.2400
 Red. masses --      2.6131                 5.2293                 6.0139
 Frc consts  --      0.8593                 1.9119                 2.2521
 IR Inten    --    162.9186                37.7913                22.0144

                     37                     38                     39
                      A                      A                      A
 Frequencies --    844.1505               939.5031               965.3147
 Red. masses --      6.1006                 3.5300                 3.5348
 Frc consts  --      2.5613                 1.8358                 1.9406
 IR Inten    --     19.2165                 4.4488                12.8721

                     40                     41                     42
                      A                      A                      A
 Frequencies --    980.3652              1020.8601              1037.1833
 Red. masses --      5.0235                 1.7299                 3.4828
 Frc consts  --      2.8447                 1.0622                 2.2074
 IR Inten    --      6.4182                 5.3460                 4.2892

                     43                     44                     45
                      A                      A                      A
 Frequencies --   1062.0392              1068.4810              1134.0803
 Red. masses --      4.2690                 1.7395                 6.1143
 Frc consts  --      2.8370                 1.1701                 4.6332
 IR Inten    --     34.6350                16.2259                74.0096

                     46                     47                     48
                      A                      A                      A
 Frequencies --   1152.2185              1169.9571              1178.5453
 Red. masses --      5.2569                 4.6583                 3.3951
 Frc consts  --      4.1120                 3.7568                 2.7784
 IR Inten    --    193.1490               109.2914                23.7243

                     49                     50                     51
                      A                      A                      A
 Frequencies --   1187.3274              1188.8169              1195.3126
 Red. masses --      2.2973                 4.3920                 1.2805
 Frc consts  --      1.9082                 3.6571                 1.0779
 IR Inten    --     84.3855               192.2948                 3.0252

                     52                     53                     54
                      A                      A                      A
 Frequencies --   1215.1071              1228.0482              1264.4699
 Red. masses --      2.7605                 1.4921                 1.9585
 Frc consts  --      2.4014                 1.3258                 1.8450
 IR Inten    --    111.5646                 8.7993               152.4192

                     55                     56                     57
                      A                      A                      A
 Frequencies --   1270.4385              1282.7330              1329.5961
 Red. masses --      1.7012                 1.4394                 1.6475
 Frc consts  --      1.6177                 1.3954                 1.7160
 IR Inten    --      5.2681                26.0725               122.2380

                     58                     59                     60
                      A                      A                      A
 Frequencies --   1338.1438              1364.7459              1397.0276
 Red. masses --      1.6415                 1.7573                 2.4347
 Frc consts  --      1.7318                 1.9284                 2.7996
 IR Inten    --     85.1901                78.7356               234.2021

                     61                     62                     63
                      A                      A                      A
 Frequencies --   1420.4232              1422.0355              1425.6936
 Red. masses --      1.3186                 1.3254                 1.4706
 Frc consts  --      1.5675                 1.5791                 1.7612
 IR Inten    --     43.4595                39.2317                54.7342

                     64                     65                     66
                      A                      A                      A
 Frequencies --   1434.4973              1466.3111              1488.0774
 Red. masses --      1.3255                 1.8620                 1.0723
 Frc consts  --      1.6071                 2.3587                 1.3990
 IR Inten    --     55.0347               144.5469                25.5222

                     67                     68                     69
                      A                      A                      A
 Frequencies --   1502.3094              1509.2215              1516.4147
 Red. masses --      1.0755                 1.2731                 1.0434
 Frc consts  --      1.4301                 1.7085                 1.4137
 IR Inten    --      8.7187                44.0863                12.3732

                     70                     71                     72
                      A                      A                      A
 Frequencies --   1521.3569              1568.4677              1600.9282
 Red. masses --      1.0435                 2.1924                 2.0166
 Frc consts  --      1.4230                 3.1778                 3.0452
 IR Inten    --     14.7276               301.1738               371.8066

                     73                     74                     75
                      A                      A                      A
 Frequencies --   1796.4111              1836.1689              1902.8142
 Red. masses --      9.3872                10.2167                12.0299
 Frc consts  --     17.8484                20.2948                25.6628
 IR Inten    --    258.4605               478.8200               295.4048

                     76                     77                     78
                      A                      A                      A
 Frequencies --   3102.0963              3116.0343              3139.1625
 Red. masses --      1.0374                 1.0304                 1.0855
 Frc consts  --      5.8819                 5.8945                 6.3026
 IR Inten    --      0.8559                23.5471                 5.7026

                     79                     80                     81
                      A                      A                      A
 Frequencies --   3146.4131              3170.4982              3181.1052
 Red. masses --      1.0848                 1.0880                 1.1001
 Frc consts  --      6.3274                 6.4437                 6.5590
 IR Inten    --     12.9645                26.1579                 5.6634

                     82                     83                     84
                      A                      A                      A
 Frequencies --   3191.4411              3200.7856              3209.5557
 Red. masses --      1.0893                 1.1086                 1.1053
 Frc consts  --      6.5372                 6.6919                 6.7083
 IR Inten    --     28.2103                15.1064                 4.6330

                     85                     86                     87
                      A                      A                      A
 Frequencies --   3231.4961              3536.9028              3622.5368
 Red. masses --      1.1078                 1.0800                 1.0790
 Frc consts  --      6.8155                 7.9601                 8.3427
 IR Inten    --     10.1016               190.2006                90.2184

 - Thermochemistry -
 -------------------
 Temperature   298.150 Kelvin.  Pressure   1.00000 Atm.
 Atom     1 has atomic number  7 and mass  14.00307

 Molecular mass:   288.07332 amu.
 Principal axes and moments of inertia in atomic units:
                           1         2         3
     Eigenvalues --  3077.754527750.339969073.45597
           X            0.99944   0.03267   0.00771
           Y           -0.03264   0.99946  -0.00391
           Z           -0.00784   0.00365   0.99996
 This molecule is an asymmetric top.
 Rotational symmetry number  1.
 Warning -- assumption of classical behavior for rotation
           may cause significant error
 Rotational temperatures (Kelvin)      0.02814     0.01118     0.00955
 Rotational constants (GHZ):           0.58638     0.23286     0.19890
 Zero-point vibrational energy     610608.7 (Joules/Mol)
                                  145.93897 (Kcal/Mol)
 Warning -- explicit consideration of  30 degrees of freedom as
           vibrations may cause significant error
 Vibrational temperatures:     42.85    60.61    72.53    85.47    99.16
          (Kelvin)            108.92   118.72   131.88   149.09   160.25
                              184.95   204.30   238.22   249.81   291.41
                              335.37   372.59   400.51   433.83   477.34
                              507.27   512.66   550.04   653.25   671.99
                              702.26   767.22   795.06   831.27   882.29
                              917.61   939.87   978.89  1074.92  1133.38
                             1147.05  1214.54  1351.74  1388.87  1410.53
                             1468.79  1492.28  1528.04  1537.31  1631.69
                             1657.79  1683.31  1695.66  1708.30  1710.44
                             1719.79  1748.27  1766.89  1819.29  1827.88
                             1845.57  1912.99  1925.29  1963.56  2010.01
                             2043.67  2045.99  2051.26  2063.92  2109.69
                             2141.01  2161.49  2171.43  2181.78  2188.89
                             2256.68  2303.38  2584.63  2641.84  2737.73
                             4463.22  4483.28  4516.55  4526.99  4561.64
                             4576.90  4591.77  4605.22  4617.83  4649.40
                             5088.81  5212.02

 Zero-point correction=                           0.232569 (Hartree/Particle)
 Thermal correction to Energy=                    0.252434
 Thermal correction to Enthalpy=                  0.253378
 Thermal correction to Gibbs Free Energy=         0.181864
 Sum of electronic and zero-point Energies=          -1159.336493
 Sum of electronic and thermal Energies=             -1159.316628
 Sum of electronic and thermal Enthalpies=           -1159.315684
 Sum of electronic and thermal Free Energies=        -1159.387197

                     E (Thermal)             CV                S
                      KCal/Mol        Cal/Mol-Kelvin    Cal/Mol-Kelvin
 Total                  158.404             68.478            150.513
 Electronic               0.000              0.000              0.000
 Translational            0.889              2.981             42.872
 Rotational               0.889              2.981             33.736
 Vibrational            156.627             62.516             73.905
 Vibration     1          0.594              1.984              5.844
 Vibration     2          0.595              1.980              5.156
 Vibration     3          0.595              1.977              4.801
 Vibration     4          0.597              1.974              4.477
 Vibration     5          0.598              1.969              4.184
 Vibration     6          0.599              1.965              3.999
 Vibration     7          0.600              1.961              3.830
 Vibration     8          0.602              1.955              3.624
 Vibration     9          0.605              1.946              3.385
 Vibration    10          0.607              1.940              3.245
 Vibration    11          0.611              1.925              2.968
 Vibration    12          0.615              1.911              2.777
 Vibration    13          0.624              1.885              2.485
 Vibration    14          0.627              1.875              2.396
 Vibration    15          0.639              1.836              2.110
 Vibration    16          0.654              1.790              1.855
 Vibration    17          0.668              1.748              1.669
 Vibration    18          0.679              1.714              1.544
 Vibration    19          0.694              1.671              1.408
 Vibration    20          0.714              1.612              1.251
 Vibration    21          0.729              1.570              1.155
 Vibration    22          0.732              1.562              1.138
 Vibration    23          0.752              1.508              1.030
 Vibration    24          0.812              1.352              0.784
 Vibration    25          0.824              1.323              0.746
 Vibration    26          0.844              1.276              0.689
 Vibration    27          0.888              1.176              0.580
 Vibration    28          0.908              1.134              0.539
 Vibration    29          0.934              1.079              0.490
 Vibration    30          0.973              1.004              0.427

                           ! Non-Optimized Parameters !
 Normal termination of Gaussian 16 at Mon Dec 30 11:41:43 2019.
