 Gaussian 16, Revision A.03,
 Gaussian 16:  ES64L-G16RevA.03 25-Dec-2016

 ------------------------------------------------------------------
 #p opt freq=noraman m062x/6-31g(d) scrf=(smd,solvent=diethylether)
 ------------------------------------------------------------------

 -----
 title
 -----
 Symbolic Z-matrix:
 Charge =  0 Multiplicity = 1

 SCF Done:  E(RM062X) =  -1159.56796028     A.U. after   13 cycles
 Optimization completed.
    -- Stationary point found.
 Normal termination of Gaussian 16 at Mon Dec 30 11:33:57 2019.

 --------------------------------------------------------------------
 #P Geom=AllCheck Guess=TCheck SCRF=Check GenChk RM062X/6-31G(d) Freq
 --------------------------------------------------------------------

 Structure from the checkpoint file:  "/scratch/cwagen_conformer_final_02/Gau-364083.chk"
 -----
 title
 -----
 Charge =  0 Multiplicity = 1

                         Standard orientation:
 ---------------------------------------------------------------------
 Center     Atomic      Atomic             Coordinates (Angstroms)
 Number     Number       Type             X           Y           Z
 ---------------------------------------------------------------------
      1          7           0        3.004044   -0.529571   -0.255959
      2          1           0        2.847802   -1.257676   -0.943932
      3          6           0        1.833384    0.129830    0.254072
      4          1           0        1.822250    0.101450    1.350997
      5          6           0        1.835945    1.597880   -0.158930
      6          6           0        0.600863   -0.596282   -0.300202
      7          1           0        2.787934    2.087205    0.050406
      8          8           0        0.708770   -1.573857   -1.025793
      9          7           0       -0.591371   -0.087006    0.076772
     10          1           0       -0.639362    0.755757    0.636441
     11          6           0       -1.818994   -0.645872   -0.439182
     12          1           0       -1.675123   -0.971248   -1.473605
     13          6           0       -2.213866   -1.870024    0.386448
     14          6           0       -2.967125    0.356089   -0.405740
     15          1           0       -1.389605   -2.580168    0.486923
     16          8           0       -4.025026    0.155945   -0.942691
     17          8           0       -2.669269    1.442422    0.307190
     18          6           0       -3.716173    2.419742    0.405316
     19          1           0       -3.301625    3.236256    0.993636
     20          1           0       -3.997880    2.767369   -0.590279
     21          1           0       -4.585171    1.987140    0.904675
     22          9           0       -3.276005   -2.489215   -0.175829
     23          9           0       -2.591218   -1.451766    1.626251
     24          9           0        1.559547    1.697053   -1.484795
     25          9           0        0.845828    2.263043    0.509769
     26          6           0        4.210905   -0.365972    0.351919
     27          8           0        4.360451    0.432550    1.267384
     28          6           0        5.327423   -1.238029   -0.169597
     29          1           0        5.514009   -2.036687    0.555022
     30          1           0        5.094659   -1.686977   -1.137480
     31          1           0        6.236457   -0.639065   -0.250410
 ---------------------------------------------------------------------

 SCF Done:  E(RM062X) =  -1159.56796028     A.U. after    1 cycles

 The electronic state is 1-A.
 Alpha  occ. eigenvalues --  -25.27402 -25.26761 -25.26618 -25.26497 -19.70297
 Alpha  occ. eigenvalues --  -19.64445 -19.63469 -19.60833 -14.80466 -14.78749
 Alpha  occ. eigenvalues --  -10.71464 -10.71379 -10.69871 -10.67804 -10.65558
 Alpha  occ. eigenvalues --  -10.61720 -10.61083 -10.59998 -10.54322  -1.40174
 Alpha  occ. eigenvalues --   -1.39908  -1.34118  -1.33757  -1.25023  -1.18745
 Alpha  occ. eigenvalues --   -1.15976  -1.15388  -1.06032  -1.04028  -0.90797
 Alpha  occ. eigenvalues --   -0.87405  -0.83178  -0.82121  -0.77695  -0.75383
 Alpha  occ. eigenvalues --   -0.69394  -0.68002  -0.67576  -0.65655  -0.64715
 Alpha  occ. eigenvalues --   -0.64159  -0.63740  -0.62445  -0.61798  -0.61173
 Alpha  occ. eigenvalues --   -0.57901  -0.57300  -0.56479  -0.55973  -0.54353
 Alpha  occ. eigenvalues --   -0.53769  -0.52815  -0.52271  -0.51771  -0.51126
 Alpha  occ. eigenvalues --   -0.50024  -0.49677  -0.49340  -0.49121  -0.48315
 Alpha  occ. eigenvalues --   -0.47456  -0.46823  -0.45757  -0.45601  -0.43891
 Alpha  occ. eigenvalues --   -0.43591  -0.42573  -0.41632  -0.38402  -0.37005
 Alpha  occ. eigenvalues --   -0.35394  -0.33606  -0.32886  -0.32053
 Alpha virt. eigenvalues --    0.04089   0.05148   0.07335   0.13483   0.14114
 Alpha virt. eigenvalues --    0.15738   0.16409   0.16801   0.17658   0.18475
 Alpha virt. eigenvalues --    0.19246   0.19365   0.20543   0.21079   0.21923

 Mulliken charges:
               1
     1  N   -0.664721
     2  H    0.398054
     3  C   -0.145521
     4  H    0.244541
     5  C    0.463608
     6  C    0.634185
     7  H    0.208924
     8  O   -0.549073
     9  N   -0.675685
    10  H    0.407958
    11  C   -0.156823
    12  H    0.259520
    13  C    0.476571
    14  C    0.657666
    15  H    0.199134
    16  O   -0.483377
    17  O   -0.494561
    18  C   -0.263900
    19  H    0.207962
    20  H    0.202097
    21  H    0.203539
    22  F   -0.294465
    23  F   -0.311535
    24  F   -0.302218
    25  F   -0.308160
    26  C    0.604535
    27  O   -0.553780
    28  C   -0.581494
    29  H    0.215928
    30  H    0.191104
    31  H    0.209988
 Sum of Mulliken charges =   0.00000

 Dipole moment (field-independent basis, Debye):
    X=              1.6017    Y=              1.0535    Z=              0.2938  Tot=              1.9395
 Quadrupole moment (field-independent basis, Debye-Ang):
   XX=           -112.5204   YY=           -100.4306   ZZ=           -111.9082
   XY=            -20.7041   XZ=            -12.5785   YZ=             -0.3007

  Exact polarizability: 161.801  -8.375 128.857   4.914  16.557 109.656
 Approx polarizability: 143.690  -1.848 130.275   7.743  23.356 126.200

                      1                      2                      3
                      A                      A                      A
 Frequencies --     19.7486                31.1785                34.2721
 Red. masses --      7.1411                 6.9194                 6.7626
 Frc consts  --      0.0016                 0.0040                 0.0047
 IR Inten    --      0.6834                 2.7330                 2.3999

                      4                      5                      6
                      A                      A                      A
 Frequencies --     50.7042                63.1749                69.0517
 Red. masses --      7.4022                 1.8653                 9.1757
 Frc consts  --      0.0112                 0.0044                 0.0258
 IR Inten    --      1.1831                 0.3238                 1.7630

                      7                      8                      9
                      A                      A                      A
 Frequencies --     79.5169                86.3851                92.6158
 Red. masses --      4.7617                 5.1271                 3.1257
 Frc consts  --      0.0177                 0.0225                 0.0158
 IR Inten    --      8.8867                 8.7580                 7.3890

                     10                     11                     12
                      A                      A                      A
 Frequencies --    110.2778               123.2127               141.8189
 Red. masses --      3.2449                 3.9183                 8.8041
 Frc consts  --      0.0233                 0.0350                 0.1043
 IR Inten    --      1.8320                 3.5385                 5.8450

                     13                     14                     15
                      A                      A                      A
 Frequencies --    166.1694               166.4214               189.9034
 Red. masses --      3.0789                 1.6427                 4.1731
 Frc consts  --      0.0501                 0.0268                 0.0887
 IR Inten    --      8.1713                 1.2732                 3.3908

                     16                     17                     18
                      A                      A                      A
 Frequencies --    224.5103               258.5032               270.1075
 Red. masses --      9.4593                 9.0750                 5.9013
 Frc consts  --      0.2809                 0.3573                 0.2537
 IR Inten    --      3.9613                 4.1522                 7.5431

                     19                     20                     21
                      A                      A                      A
 Frequencies --    273.6273               331.7927               341.2770
 Red. masses --      7.2284                 8.9374                 4.7005
 Frc consts  --      0.3189                 0.5797                 0.3226
 IR Inten    --     10.1555                 5.4557                 9.2710

                     22                     23                     24
                      A                      A                      A
 Frequencies --    357.5395               395.8228               489.4621
 Red. masses --      5.7634                10.2196                 5.3663
 Frc consts  --      0.4341                 0.9434                 0.7575
 IR Inten    --      4.9525                14.2058                70.0275

                     25                     26                     27
                      A                      A                      A
 Frequencies --    498.0527               510.1044               523.0100
 Red. masses --      1.4348                 1.4888                 4.9372
 Frc consts  --      0.2097                 0.2282                 0.7957
 IR Inten    --      7.4012               240.9401                87.4357

                     28                     29                     30
                      A                      A                      A
 Frequencies --    543.1922               589.4192               614.7571
 Red. masses --      4.0033                 7.7583                 4.4111
 Frc consts  --      0.6960                 1.5881                 0.9822
 IR Inten    --     10.5466                28.1697                12.5964

                     31                     32                     33
                      A                      A                      A
 Frequencies --    635.4636               640.3283               649.4381
 Red. masses --      4.4951                 3.5852                 2.9189
 Frc consts  --      1.0695                 0.8661                 0.7253
 IR Inten    --      4.3957                10.0278                 7.5108

                     34                     35                     36
                      A                      A                      A
 Frequencies --    685.5389               707.5140               851.6421
 Red. masses --      4.9551                 4.0971                 6.3187
 Frc consts  --      1.3720                 1.2084                 2.7002
 IR Inten    --     19.8946                 6.1452                13.8637

                     37                     38                     39
                      A                      A                      A
 Frequencies --    864.2662               899.2433               955.2048
 Red. masses --      6.1002                 5.1130                 4.0665
 Frc consts  --      2.6847                 2.4360                 2.1861
 IR Inten    --      6.0630                17.9730                 4.4816

                     40                     41                     42
                      A                      A                      A
 Frequencies --    997.4867              1005.8312              1025.3360
 Red. masses --      4.1648                 3.1202                 1.5588
 Frc consts  --      2.4415                 1.8599                 0.9656
 IR Inten    --     28.5742                18.5909                 2.0602

                     43                     44                     45
                      A                      A                      A
 Frequencies --   1067.0093              1073.2261              1105.5878
 Red. masses --      2.2019                 1.8729                 3.9780
 Frc consts  --      1.4770                 1.2710                 2.8648
 IR Inten    --     40.0167                12.4308                48.2519

                     46                     47                     48
                      A                      A                      A
 Frequencies --   1139.7039              1165.6712              1180.3913
 Red. masses --      5.7347                 4.1998                 5.4713
 Frc consts  --      4.3888                 3.3623                 4.4916
 IR Inten    --    162.4106                70.5474               134.6907

                     49                     50                     51
                      A                      A                      A
 Frequencies --   1188.6093              1193.9745              1196.6891
 Red. masses --      3.6660                 1.2799                 3.1531
 Frc consts  --      3.0515                 1.0750                 2.6604
 IR Inten    --    180.8999                 2.7122               119.8813

                     52                     53                     54
                      A                      A                      A
 Frequencies --   1226.4511              1234.5990              1263.1794
 Red. masses --      1.6069                 2.5968                 1.5578
 Frc consts  --      1.4241                 2.3320                 1.4645
 IR Inten    --     10.1306                 7.5987                22.9497

                     55                     56                     57
                      A                      A                      A
 Frequencies --   1280.1968              1318.6134              1339.6513
 Red. masses --      1.5460                 1.9010                 2.1778
 Frc consts  --      1.4928                 1.9474                 2.3028
 IR Inten    --     20.6932                24.8941               316.8530

                     58                     59                     60
                      A                      A                      A
 Frequencies --   1348.3318              1361.9782              1364.9262
 Red. masses --      2.0751                 1.2742                 1.7584
 Frc consts  --      2.2227                 1.3926                 1.9302
 IR Inten    --    207.9575                11.7985                57.2086

                     61                     62                     63
                      A                      A                      A
 Frequencies --   1420.4382              1425.4660              1434.9840
 Red. masses --      1.3377                 1.4406                 1.4070
 Frc consts  --      1.5902                 1.7247                 1.7070
 IR Inten    --     33.7292                64.6892                48.5942

                     64                     65                     66
                      A                      A                      A
 Frequencies --   1441.2563              1448.3273              1490.5565
 Red. masses --      1.3826                 1.5860                 1.0656
 Frc consts  --      1.6921                 1.9601                 1.3949
 IR Inten    --     32.9254                74.7212                42.7027

                     67                     68                     69
                      A                      A                      A
 Frequencies --   1502.0792              1506.6082              1516.0411
 Red. masses --      1.0781                 1.2750                 1.0441
 Frc consts  --      1.4331                 1.7051                 1.4139
 IR Inten    --     42.2715                38.5950                12.6438

                     70                     71                     72
                      A                      A                      A
 Frequencies --   1520.4022              1555.1942              1591.2611
 Red. masses --      1.0462                 2.5246                 2.6263
 Frc consts  --      1.4248                 3.5977                 3.9181
 IR Inten    --     13.4225               932.9843               180.6213

                     73                     74                     75
                      A                      A                      A
 Frequencies --   1805.4891              1821.4490              1898.0395
 Red. masses --     11.0263                 9.7530                11.8125
 Frc consts  --     21.1772                19.0643                25.0727
 IR Inten    --    563.5840               115.8103               332.0048

                     76                     77                     78
                      A                      A                      A
 Frequencies --   3103.7045              3111.2115              3117.2193
 Red. masses --      1.0370                 1.0838                 1.0301
 Frc consts  --      5.8853                 6.1807                 5.8975
 IR Inten    --      1.1779                10.4962                20.8463

                     79                     80                     81
                      A                      A                      A
 Frequencies --   3144.5764              3171.4082              3181.6950
 Red. masses --      1.0854                 1.0896                 1.1010
 Frc consts  --      6.3233                 6.4567                 6.5667
 IR Inten    --      7.5104                21.6264                 4.8655

                     82                     83                     84
                      A                      A                      A
 Frequencies --   3198.3900              3203.4321              3203.7027
 Red. masses --      1.0897                 1.1089                 1.1054
 Frc consts  --      6.5681                 6.7047                 6.6844
 IR Inten    --     16.6534                13.1907                 7.8280

                     85                     86                     87
                      A                      A                      A
 Frequencies --   3233.6108              3623.3867              3642.1376
 Red. masses --      1.1081                 1.0786                 1.0790
 Frc consts  --      6.8264                 8.3435                 8.4334
 IR Inten    --      7.9556               139.8619               182.3971

 - Thermochemistry -
 -------------------
 Temperature   298.150 Kelvin.  Pressure   1.00000 Atm.
 Atom     1 has atomic number  7 and mass  14.00307

 Molecular mass:   288.07332 amu.
 Principal axes and moments of inertia in atomic units:
                           1         2         3
     Eigenvalues --  2799.629419159.28061**********
           X            0.99936  -0.03566  -0.00176
           Y            0.03569   0.99910   0.02273
           Z            0.00095  -0.02278   0.99974
 This molecule is an asymmetric top.
 Rotational symmetry number  1.
 Warning -- assumption of classical behavior for rotation
           may cause significant error
 Rotational temperatures (Kelvin)      0.03094     0.00946     0.00810
 Rotational constants (GHZ):           0.64464     0.19704     0.16888
 Zero-point vibrational energy     609639.6 (Joules/Mol)
                                  145.70736 (Kcal/Mol)
 Warning -- explicit consideration of  30 degrees of freedom as
           vibrations may cause significant error
 Vibrational temperatures:     28.41    44.86    49.31    72.95    90.89
          (Kelvin)             99.35   114.41   124.29   133.25   158.67
                              177.28   204.05   239.08   239.44   273.23
                              323.02   371.93   388.62   393.69   477.38
                              491.02   514.42   569.50   704.23   716.59
                              733.93   752.49   781.53   848.04   884.50
                              914.29   921.29   934.40   986.34  1017.95
                             1225.32  1243.49  1293.81  1374.33  1435.16
                             1447.17  1475.23  1535.19  1544.13  1590.69
                             1639.78  1677.14  1698.32  1710.14  1717.86
                             1721.77  1764.59  1776.31  1817.43  1841.92
                             1897.19  1927.46  1939.95  1959.58  1963.82
                             2043.69  2050.93  2064.62  2073.65  2083.82
                             2144.58  2161.16  2167.67  2181.25  2187.52
                             2237.58  2289.47  2597.70  2620.66  2730.86
                             4465.54  4476.34  4484.98  4524.34  4562.95
                             4577.75  4601.77  4609.02  4609.41  4652.44
                             5213.25  5240.22

 Zero-point correction=                           0.232199 (Hartree/Particle)
 Thermal correction to Energy=                    0.252326
 Thermal correction to Enthalpy=                  0.253270
 Thermal correction to Gibbs Free Energy=         0.179842
 Sum of electronic and zero-point Energies=          -1159.335761
 Sum of electronic and thermal Energies=             -1159.315635
 Sum of electronic and thermal Enthalpies=           -1159.314691
 Sum of electronic and thermal Free Energies=        -1159.388118

                     E (Thermal)             CV                S
                      KCal/Mol        Cal/Mol-Kelvin    Cal/Mol-Kelvin
 Total                  158.337             68.740            154.541
 Electronic               0.000              0.000              0.000
 Translational            0.889              2.981             42.872
 Rotational               0.889              2.981             33.971
 Vibrational            156.559             62.779             77.699
 Vibration     1          0.593              1.986              6.659
 Vibration     2          0.594              1.983              5.753
 Vibration     3          0.594              1.983              5.565
 Vibration     4          0.595              1.977              4.790
 Vibration     5          0.597              1.972              4.355
 Vibration     6          0.598              1.969              4.180
 Vibration     7          0.600              1.963              3.903
 Vibration     8          0.601              1.959              3.740
 Vibration     9          0.602              1.954              3.604
 Vibration    10          0.606              1.941              3.264
 Vibration    11          0.610              1.930              3.049
 Vibration    12          0.615              1.911              2.779
 Vibration    13          0.624              1.884              2.478
 Vibration    14          0.624              1.884              2.476
 Vibration    15          0.633              1.854              2.229
 Vibration    16          0.649              1.804              1.922
 Vibration    17          0.667              1.748              1.672
 Vibration    18          0.674              1.728              1.596
 Vibration    19          0.676              1.722              1.573
 Vibration    20          0.714              1.612              1.251
 Vibration    21          0.721              1.593              1.206
 Vibration    22          0.733              1.560              1.133
 Vibration    23          0.763              1.479              0.978
 Vibration    24          0.845              1.273              0.685
 Vibration    25          0.854              1.254              0.663
 Vibration    26          0.865              1.228              0.633
 Vibration    27          0.878              1.199              0.603
 Vibration    28          0.898              1.155              0.558
 Vibration    29          0.947              1.054              0.468
 Vibration    30          0.974              1.001              0.425

 Optimization completed.
    -- Stationary point found.
 Normal termination of Gaussian 16 at Mon Dec 30 11:40:53 2019.
