 Gaussian 16, Revision A.03,
 Gaussian 16:  ES64L-G16RevA.03 25-Dec-2016

 ------------------------------------------------------------------
 #p opt freq=noraman m062x/6-31g(d) scrf=(smd,solvent=diethylether)
 ------------------------------------------------------------------

 -----
 title
 -----
 Symbolic Z-matrix:
 Charge =  0 Multiplicity = 1

 SCF Done:  E(RM062X) =  -1159.56403156     A.U. after   14 cycles
 SCF Done:  E(RM062X) =  -1159.56403151     A.U. after    7 cycles
 SCF Done:  E(RM062X) =  -1159.56403142     A.U. after    8 cycles
 SCF Done:  E(RM062X) =  -1159.56403165     A.U. after    8 cycles
 SCF Done:  E(RM062X) =  -1159.56403156     A.U. after    7 cycles
 Optimization completed.
    -- Stationary point found.
 Normal termination of Gaussian 16 at Mon Dec 30 11:37:16 2019.

 --------------------------------------------------------------------
 #P Geom=AllCheck Guess=TCheck SCRF=Check GenChk RM062X/6-31G(d) Freq
 --------------------------------------------------------------------

 Structure from the checkpoint file:  "/scratch/cwagen_conformer_final_06/Gau-325683.chk"
 -----
 title
 -----
 Charge =  0 Multiplicity = 1

                         Standard orientation:
 ---------------------------------------------------------------------
 Center     Atomic      Atomic             Coordinates (Angstroms)
 Number     Number       Type             X           Y           Z
 ---------------------------------------------------------------------
      1          7           0        1.719151    1.149285    0.389022
      2          1           0        2.107001    1.334112    1.307608
      3          6           0        1.777585   -0.207827   -0.099926
      4          1           0        1.318942   -0.220419   -1.089802
      5          6           0        3.220468   -0.651714   -0.273279
      6          6           0        1.096676   -1.142449    0.904717
      7          1           0        3.800814   -0.641038    0.651015
      8          8           0        1.717259   -1.519323    1.884545
      9          7           0       -0.193344   -1.520317    0.678488
     10          1           0       -0.613823   -1.973851    1.486776
     11          6           0       -1.126393   -0.911514   -0.238455
     12          1           0       -0.652879   -0.688406   -1.198091
     13          6           0       -2.229491   -1.931854   -0.494507
     14          6           0       -1.673900    0.408715    0.320412
     15          1           0       -1.820766   -2.905361   -0.775543
     16          8           0       -1.312622    0.883932    1.369602
     17          8           0       -2.556363    0.952266   -0.503759
     18          6           0       -2.990417    2.270938   -0.151876
     19          1           0       -3.732642    2.546595   -0.899263
     20          1           0       -3.431078    2.276903    0.846773
     21          1           0       -2.138176    2.953584   -0.191824
     22          9           0       -3.076621   -1.508373   -1.455166
     23          9           0       -2.947091   -2.078604    0.657242
     24          9           0        3.215424   -1.915621   -0.776736
     25          9           0        3.823143    0.151528   -1.185734
     26          6           0        0.880478    2.074642   -0.165374
     27          8           0        0.229035    1.839842   -1.174744
     28          6           0        0.791869    3.379720    0.583921
     29          1           0        0.004091    3.281209    1.338826
     30          1           0        1.727675    3.634343    1.087290
     31          1           0        0.516789    4.173500   -0.111740
 ---------------------------------------------------------------------

 SCF Done:  E(RM062X) =  -1159.56403156     A.U. after    1 cycles

 The electronic state is 1-A.
 Alpha  occ. eigenvalues --  -25.27092 -25.26873 -25.26234 -25.26080 -19.69115
 Alpha  occ. eigenvalues --  -19.64059 -19.62436 -19.61521 -14.79973 -14.79510
 Alpha  occ. eigenvalues --  -10.71946 -10.70745 -10.69063 -10.67040 -10.66123
 Alpha  occ. eigenvalues --  -10.61729 -10.60604 -10.59320 -10.54439  -1.40302
 Alpha  occ. eigenvalues --   -1.39403  -1.34196  -1.33333  -1.24249  -1.17816
 Alpha  occ. eigenvalues --   -1.16409  -1.14710  -1.05511  -1.04364  -0.89364
 Alpha  occ. eigenvalues --   -0.88421  -0.82420  -0.82222  -0.76545  -0.76075
 Alpha  occ. eigenvalues --   -0.69496  -0.68254  -0.66833  -0.64837  -0.64390
 Alpha  occ. eigenvalues --   -0.63636  -0.63317  -0.62528  -0.61565  -0.60034
 Alpha  occ. eigenvalues --   -0.59081  -0.57108  -0.56109  -0.55176  -0.53788
 Alpha  occ. eigenvalues --   -0.53228  -0.52382  -0.52120  -0.51636  -0.50694
 Alpha  occ. eigenvalues --   -0.49790  -0.49359  -0.49174  -0.48569  -0.48285
 Alpha  occ. eigenvalues --   -0.47715  -0.46764  -0.45816  -0.45709  -0.43394
 Alpha  occ. eigenvalues --   -0.43262  -0.41508  -0.40962  -0.37438  -0.36511
 Alpha  occ. eigenvalues --   -0.35796  -0.33520  -0.33139  -0.31595
 Alpha virt. eigenvalues --    0.03830   0.05179   0.07506   0.12616   0.14129
 Alpha virt. eigenvalues --    0.14812   0.16207   0.16902   0.17866   0.18762
 Alpha virt. eigenvalues --    0.19058   0.19545   0.19993   0.20885   0.21745

 Mulliken charges:
               1
     1  N   -0.631623
     2  H    0.392941
     3  C   -0.191773
     4  H    0.240964
     5  C    0.495562
     6  C    0.641535
     7  H    0.182644
     8  O   -0.535430
     9  N   -0.646025
    10  H    0.389021
    11  C   -0.179884
    12  H    0.260931
    13  C    0.466644
    14  C    0.678820
    15  H    0.202184
    16  O   -0.503834
    17  O   -0.467612
    18  C   -0.259143
    19  H    0.203498
    20  H    0.194015
    21  H    0.189421
    22  F   -0.290958
    23  F   -0.310947
    24  F   -0.309475
    25  F   -0.306864
    26  C    0.605235
    27  O   -0.548270
    28  C   -0.583380
    29  H    0.218199
    30  H    0.196253
    31  H    0.207350
 Sum of Mulliken charges =   0.00000

 Dipole moment (field-independent basis, Debye):
    X=             -1.0639    Y=              2.3546    Z=              0.9025  Tot=              2.7369
 Quadrupole moment (field-independent basis, Debye-Ang):
   XX=           -109.9483   YY=            -95.0093   ZZ=           -114.9446
   XY=              3.7473   XZ=              3.9105   YZ=              8.6425

  Exact polarizability: 142.724  -8.716 138.507  17.597  -2.607 119.866
 Approx polarizability: 136.542  -5.075 128.632  23.495  -2.999 142.616

                      1                      2                      3
                      A                      A                      A
 Frequencies --     40.0595                47.8386                57.8037
 Red. masses --      6.0519                10.1400                 8.8050
 Frc consts  --      0.0057                 0.0137                 0.0173
 IR Inten    --      1.7143                 1.5861                 1.8843

                      4                      5                      6
                      A                      A                      A
 Frequencies --     63.3375                81.3947                87.2649
 Red. masses --      7.9779                 6.1113                 6.8799
 Frc consts  --      0.0189                 0.0239                 0.0309
 IR Inten    --      4.3253                 0.8029                 2.9288

                      7                      8                      9
                      A                      A                      A
 Frequencies --     98.0717               109.3186               132.4424
 Red. masses --      5.5086                 4.6048                 1.4026
 Frc consts  --      0.0312                 0.0324                 0.0145
 IR Inten    --      0.3445                30.2149                 1.3886

                     10                     11                     12
                      A                      A                      A
 Frequencies --    142.5788               143.8979               153.1536
 Red. masses --      7.7749                 4.0348                 3.4748
 Frc consts  --      0.0931                 0.0492                 0.0480
 IR Inten    --      2.6864                 3.9731                 0.9941

                     13                     14                     15
                      A                      A                      A
 Frequencies --    176.8003               184.9294               197.9137
 Red. masses --      6.6991                 1.2022                 4.8881
 Frc consts  --      0.1234                 0.0242                 0.1128
 IR Inten    --      6.3204                 0.9479                 5.3248

                     16                     17                     18
                      A                      A                      A
 Frequencies --    219.6491               269.5918               290.3955
 Red. masses --      6.3148                 5.2795                 5.4382
 Frc consts  --      0.1795                 0.2261                 0.2702
 IR Inten    --      5.6022                 5.7091                 1.3798

                     19                     20                     21
                      A                      A                      A
 Frequencies --    307.8531               344.9416               355.7832
 Red. masses --      9.7974                 4.7928                 6.2462
 Frc consts  --      0.5471                 0.3360                 0.4658
 IR Inten    --      3.3072                23.0254                 8.8760

                     22                     23                     24
                      A                      A                      A
 Frequencies --    371.0644               395.5027               451.2745
 Red. masses --      6.6117                 6.8073                 5.3713
 Frc consts  --      0.5364                 0.6274                 0.6445
 IR Inten    --     22.2510                 1.1493                 3.3508

                     25                     26                     27
                      A                      A                      A
 Frequencies --    479.4330               503.7942               528.9921
 Red. masses --      2.8215                 1.9156                 3.8251
 Frc consts  --      0.3821                 0.2865                 0.6307
 IR Inten    --    122.0717                85.4442                45.7544

                     28                     29                     30
                      A                      A                      A
 Frequencies --    565.8297               579.0364               603.9215
 Red. masses --      4.8663                 6.2398                 3.9096
 Frc consts  --      0.9180                 1.2326                 0.8401
 IR Inten    --     70.1963                 9.4251                74.4723

                     31                     32                     33
                      A                      A                      A
 Frequencies --    616.4574               641.5474               659.3132
 Red. masses --      3.0236                 3.5801                 4.0664
 Frc consts  --      0.6770                 0.8682                 1.0415
 IR Inten    --      2.4766                 7.0323                25.8424

                     34                     35                     36
                      A                      A                      A
 Frequencies --    680.0502               719.1692               782.3816
 Red. masses --      2.0479                 4.0259                 6.0250
 Frc consts  --      0.5580                 1.2268                 2.1729
 IR Inten    --    134.5998                60.7854                48.4600

                     37                     38                     39
                      A                      A                      A
 Frequencies --    865.7392               916.0577               942.6955
 Red. masses --      5.4732                 4.1191                 5.0941
 Frc consts  --      2.4170                 2.0365                 2.6672
 IR Inten    --      2.4604                 3.8085                 6.0929

                     40                     41                     42
                      A                      A                      A
 Frequencies --    994.2740              1020.6265              1036.1070
 Red. masses --      4.3789                 1.5839                 2.9574
 Frc consts  --      2.5505                 0.9721                 1.8706
 IR Inten    --     11.9058                 8.8066                30.5242

                     43                     44                     45
                      A                      A                      A
 Frequencies --   1069.5909              1072.8704              1137.6065
 Red. masses --      1.7582                 4.3097                 6.7403
 Frc consts  --      1.1851                 2.9228                 5.1394
 IR Inten    --     12.4160                20.3194               127.0699

                     46                     47                     48
                      A                      A                      A
 Frequencies --   1169.5867              1178.5925              1187.5144
 Red. masses --      5.5426                 4.1143                 4.2574
 Frc consts  --      4.4671                 3.3672                 3.5373
 IR Inten    --    204.0615               137.1488               105.9052

                     49                     50                     51
                      A                      A                      A
 Frequencies --   1189.2977              1191.6176              1197.7941
 Red. masses --      2.4571                 1.3038                 2.7875
 Frc consts  --      2.0476                 1.0908                 2.3563
 IR Inten    --     50.8437                10.6967                32.1879

                     52                     53                     54
                      A                      A                      A
 Frequencies --   1218.9524              1230.6119              1282.5182
 Red. masses --      2.8695                 1.6575                 1.6628
 Frc consts  --      2.5121                 1.4790                 1.6115
 IR Inten    --     15.3604                11.6598               128.3386

                     55                     56                     57
                      A                      A                      A
 Frequencies --   1288.3666              1296.4037              1327.9596
 Red. masses --      1.5108                 1.6909                 1.6350
 Frc consts  --      1.4776                 1.6744                 1.6988
 IR Inten    --    163.8769                12.6795                92.1667

                     58                     59                     60
                      A                      A                      A
 Frequencies --   1333.2544              1362.3650              1418.6207
 Red. masses --      1.4392                 2.6031                 1.3662
 Frc consts  --      1.5073                 2.8466                 1.6200
 IR Inten    --     75.8722               299.2080                45.0176

                     61                     62                     63
                      A                      A                      A
 Frequencies --   1424.3165              1435.0785              1448.5981
 Red. masses --      1.4022                 1.3109                 1.6229
 Frc consts  --      1.6760                 1.5906                 2.0065
 IR Inten    --     11.9076                64.3750                68.2787

                     64                     65                     66
                      A                      A                      A
 Frequencies --   1449.4126              1469.5289              1491.2864
 Red. masses --      1.6957                 1.7056                 1.0583
 Frc consts  --      2.0988                 2.1701                 1.3866
 IR Inten    --    205.6082                92.5019                38.5218

                     67                     68                     69
                      A                      A                      A
 Frequencies --   1504.5596              1504.9998              1515.5996
 Red. masses --      1.0718                 1.3222                 1.0451
 Frc consts  --      1.4294                 1.7644                 1.4144
 IR Inten    --     20.2692                50.4717                10.0447

                     70                     71                     72
                      A                      A                      A
 Frequencies --   1519.8296              1536.3527              1574.4217
 Red. masses --      1.0461                 2.2192                 2.1631
 Frc consts  --      1.4237                 3.0863                 3.1591
 IR Inten    --      6.7130                71.6586               355.7092

                     73                     74                     75
                      A                      A                      A
 Frequencies --   1806.6488              1829.8206              1876.5862
 Red. masses --      9.6678                 9.1772                11.8428
 Frc consts  --     18.5920                18.1041                24.5721
 IR Inten    --    444.6873               363.0542               397.4000

                     76                     77                     78
                      A                      A                      A
 Frequencies --   3098.7096              3112.2615              3155.5778
 Red. masses --      1.0377                 1.0304                 1.0853
 Frc consts  --      5.8707                 5.8804                 6.3674
 IR Inten    --      1.0644                25.1491                 4.5932

                     79                     80                     81
                      A                      A                      A
 Frequencies --   3171.5811              3177.2606              3177.3968
 Red. masses --      1.0890                 1.0923                 1.0956
 Frc consts  --      6.4540                 6.4970                 6.5168
 IR Inten    --     30.1695                22.6392                 4.9863

                     82                     83                     84
                      A                      A                      A
 Frequencies --   3189.1349              3198.3800              3209.7678
 Red. masses --      1.0850                 1.1081                 1.1045
 Frc consts  --      6.5018                 6.6789                 6.7046
 IR Inten    --      8.1298                15.8412                 5.2755

                     85                     86                     87
                      A                      A                      A
 Frequencies --   3227.5751              3565.0913              3623.9244
 Red. masses --      1.1073                 1.0759                 1.0785
 Frc consts  --      6.7961                 8.0571                 8.3449
 IR Inten    --     11.7263                89.2997                89.9889

 - Thermochemistry -
 -------------------
 Temperature   298.150 Kelvin.  Pressure   1.00000 Atm.
 Atom     1 has atomic number  7 and mass  14.00307

 Molecular mass:   288.07332 amu.
 Principal axes and moments of inertia in atomic units:
                           1         2         3
     Eigenvalues --  3604.879296248.848338136.62278
           X            0.99978  -0.01852   0.00941
           Y            0.01840   0.99975   0.01266
           Z           -0.00964  -0.01248   0.99988
 This molecule is an asymmetric top.
 Rotational symmetry number  1.
 Warning -- assumption of classical behavior for rotation
           may cause significant error
 Rotational temperatures (Kelvin)      0.02403     0.01386     0.01064
 Rotational constants (GHZ):           0.50064     0.28881     0.22180
 Zero-point vibrational energy     611922.8 (Joules/Mol)
                                  146.25307 (Kcal/Mol)
 Warning -- explicit consideration of  31 degrees of freedom as
           vibrations may cause significant error
 Vibrational temperatures:     57.64    68.83    83.17    91.13   117.11
          (Kelvin)            125.55   141.10   157.29   190.56   205.14
                              207.04   220.35   254.38   266.07   284.75
                              316.03   387.88   417.81   442.93   496.29
                              511.89   533.88   569.04   649.28   689.80
                              724.85   761.10   814.10   833.10   868.91
                              886.94   923.04   948.60   978.44  1034.72
                             1125.67  1245.61  1318.00  1356.33  1430.54
                             1468.45  1490.73  1538.90  1543.62  1636.76
                             1682.77  1695.73  1708.57  1711.13  1714.47
                             1723.36  1753.80  1770.58  1845.26  1853.67
                             1865.24  1910.64  1918.26  1960.14  2041.08
                             2049.27  2064.76  2084.21  2085.38  2114.32
                             2145.63  2164.73  2165.36  2180.61  2186.70
                             2210.47  2265.24  2599.36  2632.70  2699.99
                             4458.35  4477.85  4540.17  4563.20  4571.37
                             4571.57  4588.45  4601.76  4618.14  4643.76
                             5129.37  5214.02

 Zero-point correction=                           0.233069 (Hartree/Particle)
 Thermal correction to Energy=                    0.252563
 Thermal correction to Enthalpy=                  0.253508
 Thermal correction to Gibbs Free Energy=         0.184043
 Sum of electronic and zero-point Energies=          -1159.330962
 Sum of electronic and thermal Energies=             -1159.311468
 Sum of electronic and thermal Enthalpies=           -1159.310524
 Sum of electronic and thermal Free Energies=        -1159.379988

                     E (Thermal)             CV                S
                      KCal/Mol        Cal/Mol-Kelvin    Cal/Mol-Kelvin
 Total                  158.486             68.455            146.200
 Electronic               0.000              0.000              0.000
 Translational            0.889              2.981             42.872
 Rotational               0.889              2.981             33.571
 Vibrational            156.709             62.494             69.757
 Vibration     1          0.594              1.981              5.256
 Vibration     2          0.595              1.978              4.905
 Vibration     3          0.596              1.974              4.531
 Vibration     4          0.597              1.972              4.350
 Vibration     5          0.600              1.962              3.857
 Vibration     6          0.601              1.958              3.720
 Vibration     7          0.604              1.951              3.492
 Vibration     8          0.606              1.942              3.281
 Vibration     9          0.613              1.921              2.910
 Vibration    10          0.616              1.911              2.769
 Vibration    11          0.616              1.909              2.751
 Vibration    12          0.619              1.899              2.633
 Vibration    13          0.628              1.871              2.362
 Vibration    14          0.631              1.860              2.278
 Vibration    15          0.637              1.843              2.152
 Vibration    16          0.647              1.811              1.962
 Vibration    17          0.674              1.729              1.599
 Vibration    18          0.686              1.692              1.472
 Vibration    19          0.698              1.659              1.374
 Vibration    20          0.723              1.586              1.189
 Vibration    21          0.731              1.563              1.140
 Vibration    22          0.743              1.532              1.075
 Vibration    23          0.762              1.480              0.979
 Vibration    24          0.810              1.358              0.792
 Vibration    25          0.836              1.296              0.712
 Vibration    26          0.859              1.242              0.649
 Vibration    27          0.884              1.186              0.589
 Vibration    28          0.922              1.105              0.512
 Vibration    29          0.936              1.077              0.487
 Vibration    30          0.962              1.023              0.443
 Vibration    31          0.976              0.997              0.422

 Optimization completed.
    -- Stationary point found.
 Normal termination of Gaussian 16 at Mon Dec 30 11:45:06 2019.
