 Gaussian 16, Revision A.03,
 Gaussian 16:  ES64L-G16RevA.03 25-Dec-2016

 ------------------------------------------------------------------
 #p opt freq=noraman m062x/6-31g(d) scrf=(smd,solvent=diethylether)
 ------------------------------------------------------------------

 -----
 title
 -----
 Symbolic Z-matrix:
 Charge =  0 Multiplicity = 1

 SCF Done:  E(RM062X) =  -1159.56739291     A.U. after   14 cycles
 SCF Done:  E(RM062X) =  -1159.56739261     A.U. after    8 cycles
 SCF Done:  E(RM062X) =  -1159.56739291     A.U. after    7 cycles
 SCF Done:  E(RM062X) =  -1159.56739289     A.U. after    7 cycles
 Optimization completed.
    -- Stationary point found.
 Normal termination of Gaussian 16 at Mon Dec 30 11:36:09 2019.

 --------------------------------------------------------------------
 #P Geom=AllCheck Guess=TCheck SCRF=Check GenChk RM062X/6-31G(d) Freq
 --------------------------------------------------------------------

 Structure from the checkpoint file:  "/scratch/cwagen_conformer_final_04/Gau-272092.chk"
 -----
 title
 -----
 Charge =  0 Multiplicity = 1

                         Standard orientation:
 ---------------------------------------------------------------------
 Center     Atomic      Atomic             Coordinates (Angstroms)
 Number     Number       Type             X           Y           Z
 ---------------------------------------------------------------------
      1          7           0        2.244915    0.730433    0.490111
      2          1           0        2.832124    0.405265    1.248214
      3          6           0        2.036161   -0.159383   -0.633596
      4          1           0        1.967284    0.447324   -1.543753
      5          6           0        3.234374   -1.080808   -0.756680
      6          6           0        0.751873   -0.992099   -0.506897
      7          1           0        3.101603   -1.867813   -1.498607
      8          8           0        0.762936   -2.214737   -0.524047
      9          7           0       -0.375042   -0.254298   -0.393077
     10          1           0       -0.319145    0.763494   -0.432721
     11          6           0       -1.658728   -0.904407   -0.291471
     12          1           0       -1.680232   -1.794618   -0.927348
     13          6           0       -1.894994   -1.357648    1.148741
     14          6           0       -2.805768    0.009504   -0.704450
     15          1           0       -1.052239   -1.932001    1.540425
     16          8           0       -3.932348   -0.384022   -0.864491
     17          8           0       -2.419455    1.278116   -0.826100
     18          6           0       -3.454425    2.208577   -1.171099
     19          1           0       -2.966446    3.179596   -1.231668
     20          1           0       -3.896897    1.939360   -2.132177
     21          1           0       -4.226593    2.212409   -0.399299
     22          9           0       -3.022106   -2.101400    1.228582
     23          9           0       -2.077312   -0.254456    1.926906
     24          9           0        4.331621   -0.342443   -1.069126
     25          9           0        3.480389   -1.652183    0.456059
     26          6           0        1.682983    1.963459    0.544111
     27          8           0        0.895575    2.348320   -0.317952
     28          6           0        2.076136    2.824217    1.717958
     29          1           0        1.171704    3.107620    2.262213
     30          1           0        2.771965    2.331128    2.399462
     31          1           0        2.535083    3.739737    1.335251
 ---------------------------------------------------------------------

 SCF Done:  E(RM062X) =  -1159.56739289     A.U. after    1 cycles

 The electronic state is 1-A.
 Alpha  occ. eigenvalues --  -25.26716 -25.26456 -25.26318 -25.26199 -19.69802
 Alpha  occ. eigenvalues --  -19.64036 -19.62518 -19.61781 -14.79987 -14.79229
 Alpha  occ. eigenvalues --  -10.71306 -10.71104 -10.69421 -10.66728 -10.66493
 Alpha  occ. eigenvalues --  -10.61151 -10.61054 -10.59684 -10.54789  -1.39878
 Alpha  occ. eigenvalues --   -1.39586  -1.33659  -1.33440  -1.24608  -1.17772
 Alpha  occ. eigenvalues --   -1.16703  -1.14948  -1.05373  -1.04383  -0.90312
 Alpha  occ. eigenvalues --   -0.87669  -0.82820  -0.82739  -0.77150  -0.74789
 Alpha  occ. eigenvalues --   -0.69933  -0.67950  -0.66826  -0.65105  -0.64469
 Alpha  occ. eigenvalues --   -0.63571  -0.63444  -0.62399  -0.61531  -0.61000
 Alpha  occ. eigenvalues --   -0.57383  -0.56836  -0.56418  -0.55823  -0.55144
 Alpha  occ. eigenvalues --   -0.53931  -0.52089  -0.51976  -0.51228  -0.51018
 Alpha  occ. eigenvalues --   -0.49580  -0.49232  -0.49093  -0.48436  -0.48167
 Alpha  occ. eigenvalues --   -0.47966  -0.46845  -0.46081  -0.44902  -0.43711
 Alpha  occ. eigenvalues --   -0.43375  -0.42269  -0.41707  -0.37966  -0.36642
 Alpha  occ. eigenvalues --   -0.36120  -0.33949  -0.32431  -0.31704
 Alpha virt. eigenvalues --    0.04362   0.05198   0.06753   0.13372   0.14802
 Alpha virt. eigenvalues --    0.16259   0.16590   0.17331   0.18085   0.18468
 Alpha virt. eigenvalues --    0.19029   0.19332   0.20535   0.21101   0.22230

 Mulliken charges:
               1
     1  N   -0.649634
     2  H    0.398036
     3  C   -0.172054
     4  H    0.251838
     5  C    0.465441
     6  C    0.656768
     7  H    0.202685
     8  O   -0.549789
     9  N   -0.700124
    10  H    0.434699
    11  C   -0.151838
    12  H    0.252591
    13  C    0.473916
    14  C    0.652907
    15  H    0.197466
    16  O   -0.488211
    17  O   -0.485494
    18  C   -0.262927
    19  H    0.208632
    20  H    0.198078
    21  H    0.200660
    22  F   -0.296258
    23  F   -0.312740
    24  F   -0.311907
    25  F   -0.311678
    26  C    0.612553
    27  O   -0.565253
    28  C   -0.577267
    29  H    0.217652
    30  H    0.191950
    31  H    0.219304
 Sum of Mulliken charges =   0.00000

 Dipole moment (field-independent basis, Debye):
    X=              2.9835    Y=              3.7378    Z=              0.5140  Tot=              4.8100
 Quadrupole moment (field-independent basis, Debye-Ang):
   XX=           -116.1029   YY=           -107.5895   ZZ=            -98.8756
   XY=             -5.7707   XZ=              7.4846   YZ=              4.1378

  Exact polarizability: 142.480  -6.602 147.591   6.631   4.359 108.918
 Approx polarizability: 137.523  -4.501 150.336   7.512   0.161 113.483

                      1                      2                      3
                      A                      A                      A
 Frequencies --     17.1193                33.7779                39.2272
 Red. masses --      6.0825                 7.1330                 6.9081
 Frc consts  --      0.0011                 0.0048                 0.0063
 IR Inten    --      0.5985                 3.5408                 1.2044

                      4                      5                      6
                      A                      A                      A
 Frequencies --     51.0387                59.6378                63.8662
 Red. masses --      1.8688                 2.5677                 5.9326
 Frc consts  --      0.0029                 0.0054                 0.0143
 IR Inten    --      2.7462                 0.2304                 1.3539

                      7                      8                      9
                      A                      A                      A
 Frequencies --     80.9780                90.5808                97.2139
 Red. masses --      5.0488                 4.8596                 7.6113
 Frc consts  --      0.0195                 0.0235                 0.0424
 IR Inten    --      2.5880                12.7859                 5.8063

                     10                     11                     12
                      A                      A                      A
 Frequencies --    103.7818               126.0934               151.5313
 Red. masses --      6.5585                 3.9651                 2.0246
 Frc consts  --      0.0416                 0.0371                 0.0274
 IR Inten    --      6.0937                 0.8559                 2.9613

                     13                     14                     15
                      A                      A                      A
 Frequencies --    156.7938               169.9169               198.1591
 Red. masses --      2.0660                 4.9198                 5.9313
 Frc consts  --      0.0299                 0.0837                 0.1372
 IR Inten    --      6.3848                20.7934                 1.1947

                     16                     17                     18
                      A                      A                      A
 Frequencies --    241.7822               246.6410               256.8938
 Red. masses --      7.6891                 9.4890                 9.0858
 Frc consts  --      0.2648                 0.3401                 0.3533
 IR Inten    --      1.4083                 5.2707                 7.2412

                     19                     20                     21
                      A                      A                      A
 Frequencies --    270.6025               319.7746               340.7766
 Red. masses --      8.0056                 7.8028                 5.5132
 Frc consts  --      0.3454                 0.4701                 0.3772
 IR Inten    --      5.1524                 8.8981                15.1230

                     22                     23                     24
                      A                      A                      A
 Frequencies --    365.3733               395.0239               455.1728
 Red. masses --      7.3951                10.2839                 1.5726
 Frc consts  --      0.5817                 0.9455                 0.1920
 IR Inten    --      2.5082                 9.4473                73.0483

                     25                     26                     27
                      A                      A                      A
 Frequencies --    461.6001               505.7434               539.8817
 Red. masses --      2.2793                 7.8318                 8.6054
 Frc consts  --      0.2861                 1.1802                 1.4778
 IR Inten    --     72.7437                72.1162                47.1844

                     28                     29                     30
                      A                      A                      A
 Frequencies --    589.5278               604.0999               630.7351
 Red. masses --      8.0715                 4.1180                 5.2071
 Frc consts  --      1.6528                 0.8854                 1.2205
 IR Inten    --     16.3629                44.4910                31.3736

                     31                     32                     33
                      A                      A                      A
 Frequencies --    634.6363               655.2027               658.9257
 Red. masses --      2.6146                 3.1380                 1.7650
 Frc consts  --      0.6204                 0.7937                 0.4515
 IR Inten    --     13.0951                38.0632                47.8432

                     34                     35                     36
                      A                      A                      A
 Frequencies --    716.3413               754.6614               823.4080
 Red. masses --      3.0029                 4.6874                 7.0188
 Frc consts  --      0.9079                 1.5728                 2.8038
 IR Inten    --     18.4937                20.9861                19.7546

                     37                     38                     39
                      A                      A                      A
 Frequencies --    863.5169               911.4308               960.7388
 Red. masses --      5.3641                 4.8139                 2.9953
 Frc consts  --      2.3566                 2.3561                 1.6289
 IR Inten    --      5.4065                18.9830                12.0104

                     40                     41                     42
                      A                      A                      A
 Frequencies --   1005.7618              1014.8325              1025.1718
 Red. masses --      2.9760                 4.6136                 3.9991
 Frc consts  --      1.7736                 2.7995                 2.4763
 IR Inten    --     34.5926                 5.6833                 5.8736

                     43                     44                     45
                      A                      A                      A
 Frequencies --   1043.5933              1074.0660              1109.5799
 Red. masses --      1.5270                 1.7369                 4.1853
 Frc consts  --      0.9798                 1.1806                 3.0359
 IR Inten    --      6.7050                15.6293                49.9919

                     46                     47                     48
                      A                      A                      A
 Frequencies --   1139.0030              1171.8177              1181.4795
 Red. masses --      4.8661                 4.0850                 4.1664
 Frc consts  --      3.7195                 3.3049                 3.4266
 IR Inten    --    121.4710               147.2878               120.4009

                     49                     50                     51
                      A                      A                      A
 Frequencies --   1188.3005              1194.6960              1203.3944
 Red. masses --      5.0871                 1.2807                 2.7964
 Frc consts  --      4.2322                 1.0770                 2.3859
 IR Inten    --    187.6105                 2.5080                75.5868

                     52                     53                     54
                      A                      A                      A
 Frequencies --   1206.2517              1227.9804              1274.5811
 Red. masses --      2.8980                 1.4861                 1.5908
 Frc consts  --      2.4844                 1.3204                 1.5227
 IR Inten    --     62.8269                 2.2390                 8.6234

                     55                     56                     57
                      A                      A                      A
 Frequencies --   1304.4761              1310.1011              1344.6958
 Red. masses --      1.5504                 1.6050                 2.1987
 Frc consts  --      1.5544                 1.6231                 2.3424
 IR Inten    --     34.9511                24.8641               328.0907

                     58                     59                     60
                      A                      A                      A
 Frequencies --   1352.3863              1362.4352              1374.8225
 Red. masses --      1.8017                 1.6399                 1.6341
 Frc consts  --      1.9415                 1.7935                 1.8198
 IR Inten    --    178.6081                25.7706                25.5840

                     61                     62                     63
                      A                      A                      A
 Frequencies --   1423.5342              1430.8270              1432.5512
 Red. masses --      1.2761                 1.2734                 1.5473
 Frc consts  --      1.5236                 1.5359                 1.8709
 IR Inten    --     32.1834                36.1837                54.7727

                     64                     65                     66
                      A                      A                      A
 Frequencies --   1442.3699              1448.6018              1490.9727
 Red. masses --      1.4000                 1.8566                 1.0443
 Frc consts  --      1.7161                 2.2954                 1.3678
 IR Inten    --     31.7007               129.1637                11.8166

                     67                     68                     69
                      A                      A                      A
 Frequencies --   1506.4024              1514.6168              1515.9228
 Red. masses --      1.2797                 1.0441                 1.1150
 Frc consts  --      1.7109                 1.4113                 1.5096
 IR Inten    --     39.4993                13.9719                23.6877

                     70                     71                     72
                      A                      A                      A
 Frequencies --   1519.7369              1579.1365              1590.2947
 Red. masses --      1.0516                 2.4065                 2.4014
 Frc consts  --      1.4309                 3.5357                 3.5783
 IR Inten    --      8.5965               385.4581               556.3873

                     73                     74                     75
                      A                      A                      A
 Frequencies --   1782.8968              1813.3272              1893.9437
 Red. masses --      8.8886                10.5168                11.7701
 Frc consts  --     16.6471                20.3745                24.8750
 IR Inten    --    269.2457               453.3679               336.7602

                     76                     77                     78
                      A                      A                      A
 Frequencies --   3106.4839              3115.6219              3120.4002
 Red. masses --      1.0359                 1.0303                 1.0842
 Frc consts  --      5.8898                 5.8928                 6.2197
 IR Inten    --      0.8833                22.6428                 3.6600

                     79                     80                     81
                      A                      A                      A
 Frequencies --   3145.3603              3178.6400              3184.8004
 Red. masses --      1.0850                 1.0890                 1.1019
 Frc consts  --      6.3244                 6.4828                 6.5850
 IR Inten    --      7.3251                23.5898                 1.0822

                     82                     83                     84
                      A                      A                      A
 Frequencies --   3200.0287              3201.6128              3204.6227
 Red. masses --      1.1086                 1.1057                 1.0897
 Frc consts  --      6.6885                 6.6779                 6.5935
 IR Inten    --     14.9738                 9.1945                17.9693

                     85                     86                     87
                      A                      A                      A
 Frequencies --   3233.2215              3516.0695              3640.9347
 Red. masses --      1.1077                 1.0819                 1.0792
 Frc consts  --      6.8223                 7.8802                 8.4289
 IR Inten    --      8.6239               300.6234               119.3563

 - Thermochemistry -
 -------------------
 Temperature   298.150 Kelvin.  Pressure   1.00000 Atm.
 Atom     1 has atomic number  7 and mass  14.00307

 Molecular mass:   288.07332 amu.
 Principal axes and moments of inertia in atomic units:
                           1         2         3
     Eigenvalues --  3358.080587939.839549298.75526
           X            0.99979  -0.00513   0.01961
           Y            0.00447   0.99942   0.03387
           Z           -0.01977  -0.03377   0.99923
 This molecule is an asymmetric top.
 Rotational symmetry number  1.
 Warning -- assumption of classical behavior for rotation
           may cause significant error
 Rotational temperatures (Kelvin)      0.02579     0.01091     0.00931
 Rotational constants (GHZ):           0.53743     0.22730     0.19408
 Zero-point vibrational energy     610003.2 (Joules/Mol)
                                  145.79425 (Kcal/Mol)
 Warning -- explicit consideration of  29 degrees of freedom as
           vibrations may cause significant error
 Vibrational temperatures:     24.63    48.60    56.44    73.43    85.81
          (Kelvin)             91.89   116.51   130.33   139.87   149.32
                              181.42   218.02   225.59   244.47   285.11
                              347.87   354.86   369.61   389.34   460.08
                              490.30   525.69   568.35   654.89   664.14
                              727.65   776.77   848.20   869.17   907.49
                              913.10   942.69   948.05  1030.66  1085.79
                             1184.70  1242.41  1311.35  1382.29  1447.07
                             1460.12  1474.99  1501.50  1545.34  1596.44
                             1638.77  1685.98  1699.89  1709.70  1718.90
                             1731.42  1735.53  1766.79  1833.84  1876.85
                             1884.94  1934.72  1945.78  1960.24  1978.06
                             2048.15  2058.64  2061.12  2075.25  2084.21
                             2145.18  2167.38  2179.20  2181.07  2186.56
                             2272.03  2288.08  2565.19  2608.97  2724.96
                             4469.54  4482.69  4489.56  4525.47  4573.35
                             4582.22  4604.13  4606.41  4610.74  4651.88
                             5058.84  5238.49

 Zero-point correction=                           0.232338 (Hartree/Particle)
 Thermal correction to Energy=                    0.252423
 Thermal correction to Enthalpy=                  0.253367
 Thermal correction to Gibbs Free Energy=         0.180068
 Sum of electronic and zero-point Energies=          -1159.335055
 Sum of electronic and thermal Energies=             -1159.314970
 Sum of electronic and thermal Enthalpies=           -1159.314026
 Sum of electronic and thermal Free Energies=        -1159.387324

                     E (Thermal)             CV                S
                      KCal/Mol        Cal/Mol-Kelvin    Cal/Mol-Kelvin
 Total                  158.398             68.525            154.269
 Electronic               0.000              0.000              0.000
 Translational            0.889              2.981             42.872
 Rotational               0.889              2.981             33.871
 Vibrational            156.620             62.563             77.526
 Vibration     1          0.593              1.986              6.943
 Vibration     2          0.594              1.983              5.594
 Vibration     3          0.594              1.981              5.298
 Vibration     4          0.595              1.977              4.777
 Vibration     5          0.597              1.974              4.469
 Vibration     6          0.597              1.972              4.334
 Vibration     7          0.600              1.962              3.867
 Vibration     8          0.602              1.956              3.647
 Vibration     9          0.603              1.951              3.509
 Vibration    10          0.605              1.946              3.382
 Vibration    11          0.611              1.927              3.005
 Vibration    12          0.619              1.901              2.653
 Vibration    13          0.620              1.895              2.588
 Vibration    14          0.625              1.880              2.436
 Vibration    15          0.637              1.842              2.150
 Vibration    16          0.658              1.776              1.790
 Vibration    17          0.661              1.768              1.754
 Vibration    18          0.666              1.751              1.683
 Vibration    19          0.674              1.727              1.592
 Vibration    20          0.706              1.636              1.311
 Vibration    21          0.720              1.594              1.209
 Vibration    22          0.739              1.544              1.099
 Vibration    23          0.762              1.481              0.981
 Vibration    24          0.814              1.349              0.780
 Vibration    25          0.819              1.335              0.761
 Vibration    26          0.861              1.237              0.644
 Vibration    27          0.895              1.162              0.566
 Vibration    28          0.947              1.054              0.468
 Vibration    29          0.963              1.023              0.443

                           ! Non-Optimized Parameters !
 Normal termination of Gaussian 16 at Mon Dec 30 11:43:22 2019.
