 Gaussian 16, Revision A.03,
 Gaussian 16:  ES64L-G16RevA.03 25-Dec-2016

 ------------------------------------------------------------------
 #p opt freq=noraman m062x/6-31g(d) scrf=(smd,solvent=diethylether)
 ------------------------------------------------------------------

 -----
 title
 -----
 Symbolic Z-matrix:
 Charge =  0 Multiplicity = 1

 SCF Done:  E(RM062X) =  -1159.56824889     A.U. after   13 cycles
 Optimization completed.
    -- Stationary point found.
 Normal termination of Gaussian 16 at Mon Dec 30 11:34:25 2019.

 --------------------------------------------------------------------
 #P Geom=AllCheck Guess=TCheck SCRF=Check GenChk RM062X/6-31G(d) Freq
 --------------------------------------------------------------------

 Structure from the checkpoint file:  "/scratch/cwagen_conformer_final_01/Gau-374881.chk"
 -----
 title
 -----
 Charge =  0 Multiplicity = 1

                         Standard orientation:
 ---------------------------------------------------------------------
 Center     Atomic      Atomic             Coordinates (Angstroms)
 Number     Number       Type             X           Y           Z
 ---------------------------------------------------------------------
      1          7           0       -2.191156    0.867641    0.380130
      2          1           0       -2.676906    1.119847   -0.474010
      3          6           0       -1.910033   -0.540913    0.583393
      4          1           0       -1.626139   -0.678262    1.630741
      5          6           0       -3.170592   -1.337726    0.317600
      6          6           0       -0.744573   -0.942948   -0.332574
      7          1           0       -3.956682   -1.119138    1.045098
      8          8           0       -0.888658   -1.535870   -1.383494
      9          7           0        0.455691   -0.482196    0.131498
     10          1           0        0.438340    0.104121    0.965018
     11          6           0        1.543415   -0.288632   -0.787366
     12          1           0        1.389200   -0.956816   -1.641068
     13          6           0        1.526274    1.151454   -1.292026
     14          6           0        2.922552   -0.574629   -0.209935
     15          1           0        2.286314    1.374153   -2.041219
     16          8           0        3.932309   -0.215006   -0.767629
     17          8           0        2.884447   -1.246882    0.932350
     18          6           0        4.165789   -1.546354    1.504017
     19          1           0        3.956574   -2.088670    2.424415
     20          1           0        4.749267   -2.164385    0.818674
     21          1           0        4.708451   -0.623221    1.717117
     22          9           0        1.694627    1.980993   -0.222910
     23          9           0        0.294513    1.422349   -1.800997
     24          9           0       -3.649351   -1.042987   -0.921903
     25          9           0       -2.887088   -2.661409    0.357411
     26          6           0       -1.473209    1.826815    1.034793
     27          8           0       -0.682415    1.542187    1.927568
     28          6           0       -1.692622    3.239456    0.560817
     29          1           0       -0.903152    3.473461   -0.161120
     30          1           0       -2.663543    3.375813    0.080124
     31          1           0       -1.595252    3.919913    1.407767
 ---------------------------------------------------------------------

 SCF Done:  E(RM062X) =  -1159.56824889     A.U. after    1 cycles

 The electronic state is 1-A.
 Alpha  occ. eigenvalues --  -25.26864 -25.26640 -25.26217 -25.26144 -19.69660
 Alpha  occ. eigenvalues --  -19.64076 -19.62072 -19.61910 -14.79806 -14.78806
 Alpha  occ. eigenvalues --  -10.71193 -10.71061 -10.69347 -10.66435 -10.66363
 Alpha  occ. eigenvalues --  -10.60984 -10.60631 -10.59643 -10.54576  -1.39893
 Alpha  occ. eigenvalues --   -1.39409  -1.33691  -1.33421  -1.24571  -1.17541
 Alpha  occ. eigenvalues --   -1.16615  -1.14898  -1.05267  -1.04193  -0.90005
 Alpha  occ. eigenvalues --   -0.87507  -0.82777  -0.82367  -0.77257  -0.74397
 Alpha  occ. eigenvalues --   -0.68966  -0.67675  -0.66625  -0.65453  -0.64680
 Alpha  occ. eigenvalues --   -0.63692  -0.63122  -0.62605  -0.61497  -0.60717
 Alpha  occ. eigenvalues --   -0.57390  -0.56887  -0.56144  -0.55262  -0.54543
 Alpha  occ. eigenvalues --   -0.54000  -0.52283  -0.51786  -0.51188  -0.50301
 Alpha  occ. eigenvalues --   -0.49698  -0.49301  -0.49031  -0.48297  -0.48098
 Alpha  occ. eigenvalues --   -0.47531  -0.46342  -0.45633  -0.45235  -0.43694
 Alpha  occ. eigenvalues --   -0.43249  -0.42425  -0.41456  -0.37826  -0.36913
 Alpha  occ. eigenvalues --   -0.35948  -0.33855  -0.32438  -0.31151
 Alpha virt. eigenvalues --    0.04456   0.05001   0.07253   0.13531   0.15014
 Alpha virt. eigenvalues --    0.15789   0.16703   0.17207   0.17795   0.18428
 Alpha virt. eigenvalues --    0.18905   0.20153   0.21070   0.21521   0.21565

 Mulliken charges:
               1
     1  N   -0.641278
     2  H    0.396039
     3  C   -0.200865
     4  H    0.246162
     5  C    0.485287
     6  C    0.651280
     7  H    0.191161
     8  O   -0.523304
     9  N   -0.661793
    10  H    0.403645
    11  C   -0.195286
    12  H    0.268837
    13  C    0.482416
    14  C    0.672294
    15  H    0.202541
    16  O   -0.506363
    17  O   -0.471529
    18  C   -0.265018
    19  H    0.205688
    20  H    0.198067
    21  H    0.199497
    22  F   -0.309825
    23  F   -0.305669
    24  F   -0.311477
    25  F   -0.303633
    26  C    0.598785
    27  O   -0.553591
    28  C   -0.577230
    29  H    0.218352
    30  H    0.194377
    31  H    0.212432
 Sum of Mulliken charges =   0.00000

 Dipole moment (field-independent basis, Debye):
    X=             -0.4525    Y=              2.1008    Z=              1.9303  Tot=              2.8886
 Quadrupole moment (field-independent basis, Debye-Ang):
   XX=            -95.4444   YY=           -105.8733   ZZ=           -108.5366
   XY=            -15.6076   XZ=             -0.2880   YZ=            -10.8463

  Exact polarizability: 145.144   2.913 129.942   5.994   0.471 123.941
 Approx polarizability: 138.229   6.888 127.011  10.194   3.637 139.074

                      1                      2                      3
                      A                      A                      A
 Frequencies --     24.7317                41.3941                52.6311
 Red. masses --      6.1527                 7.4291                 7.0514
 Frc consts  --      0.0022                 0.0075                 0.0115
 IR Inten    --      1.6497                 2.2387                 2.8752

                      4                      5                      6
                      A                      A                      A
 Frequencies --     65.2053                75.3235                81.8577
 Red. masses --      8.8439                 6.5427                 7.2185
 Frc consts  --      0.0222                 0.0219                 0.0285
 IR Inten    --      4.3848                 5.5067                 2.0949

                      7                      8                      9
                      A                      A                      A
 Frequencies --     97.8994               102.5368               112.3889
 Red. masses --      6.1668                 4.2618                 1.2079
 Frc consts  --      0.0348                 0.0264                 0.0090
 IR Inten    --      2.5510                 9.1447                 0.5068

                     10                     11                     12
                      A                      A                      A
 Frequencies --    117.3519               144.1283               146.4353
 Red. masses --      7.5710                 5.8586                 4.9704
 Frc consts  --      0.0614                 0.0717                 0.0628
 IR Inten    --      9.4613                 3.2102                 4.3252

                     13                     14                     15
                      A                      A                      A
 Frequencies --    166.4360               171.9507               202.8976
 Red. masses --      5.9331                 1.1315                 6.1525
 Frc consts  --      0.0968                 0.0197                 0.1492
 IR Inten    --      9.9875                 0.7077                11.6980

                     16                     17                     18
                      A                      A                      A
 Frequencies --    252.9490               256.9404               273.0156
 Red. masses --      6.8731                 7.4844                10.0976
 Frc consts  --      0.2591                 0.2911                 0.4435
 IR Inten    --      2.5339                 4.4364                 7.7860

                     19                     20                     21
                      A                      A                      A
 Frequencies --    294.0606               333.9105               347.4308
 Red. masses --      5.7830                 5.5018                 6.0914
 Frc consts  --      0.2946                 0.3614                 0.4332
 IR Inten    --     14.5722                12.8260                11.4513

                     22                     23                     24
                      A                      A                      A
 Frequencies --    357.9967               372.2040               480.3725
 Red. masses --      9.0180                 5.4091                 6.2438
 Frc consts  --      0.6810                 0.4415                 0.8489
 IR Inten    --      3.2571                 7.1304                76.1476

                     25                     26                     27
                      A                      A                      A
 Frequencies --    503.2737               510.5432               540.2039
 Red. masses --      3.8748                 1.5423                 8.4940
 Frc consts  --      0.5782                 0.2369                 1.4604
 IR Inten    --     17.5468               193.2668                31.7863

                     28                     29                     30
                      A                      A                      A
 Frequencies --    563.2125               568.4069               611.8487
 Red. masses --     10.8675                 3.7887                 3.6488
 Frc consts  --      2.0311                 0.7212                 0.8048
 IR Inten    --      9.8064                42.1235                14.2717

                     31                     32                     33
                      A                      A                      A
 Frequencies --    638.4526               648.0877               706.0376
 Red. masses --      4.3389                 2.9952                 1.3839
 Frc consts  --      1.0420                 0.7412                 0.4065
 IR Inten    --      8.3114                17.5590               199.2918

                     34                     35                     36
                      A                      A                      A
 Frequencies --    777.5365               789.8473               804.5022
 Red. masses --      5.0306                 5.2861                 5.4986
 Frc consts  --      1.7919                 1.9430                 2.0968
 IR Inten    --     72.7941                32.9267                 9.1738

                     37                     38                     39
                      A                      A                      A
 Frequencies --    876.2587               910.0719               947.0180
 Red. masses --      5.8053                 5.1927                 2.8400
 Frc consts  --      2.6263                 2.5339                 1.5006
 IR Inten    --     27.7609                25.2686                 3.8898

                     40                     41                     42
                      A                      A                      A
 Frequencies --    976.3401              1000.8790              1027.2835
 Red. masses --      4.0360                 3.2395                 1.7568
 Frc consts  --      2.2667                 1.9120                 1.0923
 IR Inten    --      4.9340                 9.3902                 2.1465

                     43                     44                     45
                      A                      A                      A
 Frequencies --   1060.4022              1070.6546              1096.2649
 Red. masses --      2.7462                 1.7369                 4.7810
 Frc consts  --      1.8194                 1.1731                 3.3853
 IR Inten    --     11.2942                20.2703                75.9044

                     46                     47                     48
                      A                      A                      A
 Frequencies --   1147.3319              1168.7557              1174.4683
 Red. masses --      5.1759                 4.7994                 3.9636
 Frc consts  --      4.0143                 3.8626                 3.2212
 IR Inten    --    251.7723                64.6636                19.6667

                     49                     50                     51
                      A                      A                      A
 Frequencies --   1189.0364              1194.8253              1201.0165
 Red. masses --      4.7146                 1.2823                 2.9401
 Frc consts  --      3.9272                 1.0785                 2.4986
 IR Inten    --    172.2851                 2.0692                24.6441

                     52                     53                     54
                      A                      A                      A
 Frequencies --   1221.6450              1231.9692              1267.6529
 Red. masses --      2.2400                 1.5707                 1.8611
 Frc consts  --      1.9697                 1.4046                 1.7621
 IR Inten    --    109.3092                 9.6048                99.3739

                     55                     56                     57
                      A                      A                      A
 Frequencies --   1283.3975              1294.9912              1333.5879
 Red. masses --      1.5204                 1.4760                 1.5158
 Frc consts  --      1.4755                 1.4583                 1.5883
 IR Inten    --     33.2873                35.5539                75.9633

                     58                     59                     60
                      A                      A                      A
 Frequencies --   1342.5167              1387.7958              1410.6008
 Red. masses --      1.6295                 3.4044                 1.7099
 Frc consts  --      1.7304                 3.8631                 2.0047
 IR Inten    --     52.4244               327.2251                55.7682

                     61                     62                     63
                      A                      A                      A
 Frequencies --   1417.9602              1423.1166              1426.1115
 Red. masses --      1.6118                 1.3615                 1.3117
 Frc consts  --      1.9093                 1.6246                 1.5718
 IR Inten    --     98.3609                 8.4628                28.5493

                     64                     65                     66
                      A                      A                      A
 Frequencies --   1442.6246              1448.1158              1488.2697
 Red. masses --      1.8541                 1.3257                 1.0689
 Frc consts  --      2.2735                 1.6380                 1.3949
 IR Inten    --    200.5087                30.5887                26.2327

                     67                     68                     69
                      A                      A                      A
 Frequencies --   1505.0324              1509.0723              1516.2643
 Red. masses --      1.0687                 1.3229                 1.0446
 Frc consts  --      1.4262                 1.7750                 1.4150
 IR Inten    --      8.6205                53.0537                12.2448

                     70                     71                     72
                      A                      A                      A
 Frequencies --   1520.9119              1556.9305              1594.6790
 Red. masses --      1.0451                 2.2519                 1.8274
 Frc consts  --      1.4243                 3.2162                 2.7380
 IR Inten    --     11.6982               296.5376               390.8278

                     73                     74                     75
                      A                      A                      A
 Frequencies --   1796.9202              1849.9959              1871.7213
 Red. masses --      9.4713                 9.9859                11.9801
 Frc consts  --     18.0185                20.1363                24.7283
 IR Inten    --    273.7737               416.7762               341.6409

                     76                     77                     78
                      A                      A                      A
 Frequencies --   3102.0131              3114.6381              3139.9281
 Red. masses --      1.0374                 1.0305                 1.0837
 Frc consts  --      5.8816                 5.8898                 6.2953
 IR Inten    --      0.8253                23.5311                18.4552

                     79                     80                     81
                      A                      A                      A
 Frequencies --   3146.8750              3156.4531              3181.2640
 Red. masses --      1.0851                 1.0885                 1.1002
 Frc consts  --      6.3311                 6.3896                 6.5602
 IR Inten    --      7.1056                37.0373                 5.2639

                     82                     83                     84
                      A                      A                      A
 Frequencies --   3197.0035              3198.7430              3210.6178
 Red. masses --      1.0894                 1.1085                 1.1055
 Frc consts  --      6.5605                 6.6826                 6.7140
 IR Inten    --     22.4581                15.8714                 4.6191

                     85                     86                     87
                      A                      A                      A
 Frequencies --   3231.0531              3535.6440              3614.5054
 Red. masses --      1.1076                 1.0799                 1.0785
 Frc consts  --      6.8126                 7.9538                 8.3020
 IR Inten    --     10.0116               183.1628               101.8071

 - Thermochemistry -
 -------------------
 Temperature   298.150 Kelvin.  Pressure   1.00000 Atm.
 Atom     1 has atomic number  7 and mass  14.00307

 Molecular mass:   288.07332 amu.
 Principal axes and moments of inertia in atomic units:
                           1         2         3
     Eigenvalues --  3516.288856935.642948321.21596
           X            0.99861  -0.05251   0.00480
           Y            0.05255   0.99858  -0.00928
           Z           -0.00431   0.00952   0.99995
 This molecule is an asymmetric top.
 Rotational symmetry number  1.
 Warning -- assumption of classical behavior for rotation
           may cause significant error
 Rotational temperatures (Kelvin)      0.02463     0.01249     0.01041
 Rotational constants (GHZ):           0.51325     0.26021     0.21688
 Zero-point vibrational energy     611562.3 (Joules/Mol)
                                  146.16689 (Kcal/Mol)
 Warning -- explicit consideration of  30 degrees of freedom as
           vibrations may cause significant error
 Vibrational temperatures:     35.58    59.56    75.72    93.82   108.37
          (Kelvin)            117.77   140.86   147.53   161.70   168.84
                              207.37   210.69   239.46   247.40   291.92
                              363.94   369.68   392.81   423.09   480.42
                              499.88   515.08   535.52   691.15   724.10
                              734.56   777.23   810.34   817.81   880.31
                              918.59   932.45  1015.83  1118.70  1136.41
                             1157.50  1260.74  1309.39  1362.55  1404.74
                             1440.04  1478.03  1525.68  1540.43  1577.28
                             1650.75  1681.58  1689.80  1710.76  1719.09
                             1727.99  1757.67  1772.53  1823.87  1846.52
                             1863.20  1918.74  1931.58  1996.73  2029.54
                             2040.13  2047.55  2051.86  2075.62  2083.52
                             2141.29  2165.41  2171.22  2181.57  2188.25
                             2240.08  2294.39  2585.37  2661.73  2692.99
                             4463.10  4481.27  4517.66  4527.65  4541.43
                             4577.13  4599.78  4602.28  4619.36  4648.76
                             5087.00  5200.47

 Zero-point correction=                           0.232932 (Hartree/Particle)
 Thermal correction to Energy=                    0.252571
 Thermal correction to Enthalpy=                  0.253515
 Thermal correction to Gibbs Free Energy=         0.182781
 Sum of electronic and zero-point Energies=          -1159.335317
 Sum of electronic and thermal Energies=             -1159.315678
 Sum of electronic and thermal Enthalpies=           -1159.314734
 Sum of electronic and thermal Free Energies=        -1159.385468

                     E (Thermal)             CV                S
                      KCal/Mol        Cal/Mol-Kelvin    Cal/Mol-Kelvin
 Total                  158.491             68.170            148.872
 Electronic               0.000              0.000              0.000
 Translational            0.889              2.981             42.872
 Rotational               0.889              2.981             33.672
 Vibrational            156.713             62.208             72.327
 Vibration     1          0.593              1.985              6.213
 Vibration     2          0.594              1.981              5.191
 Vibration     3          0.596              1.977              4.716
 Vibration     4          0.597              1.971              4.293
 Vibration     5          0.599              1.965              4.009
 Vibration     6          0.600              1.962              3.846
 Vibration     7          0.603              1.951              3.496
 Vibration     8          0.605              1.947              3.406
 Vibration     9          0.607              1.939              3.227
 Vibration    10          0.608              1.935              3.144
 Vibration    11          0.616              1.909              2.748
 Vibration    12          0.617              1.907              2.718
 Vibration    13          0.624              1.884              2.475
 Vibration    14          0.626              1.877              2.414
 Vibration    15          0.639              1.836              2.107
 Vibration    16          0.664              1.758              1.710
 Vibration    17          0.667              1.751              1.682
 Vibration    18          0.676              1.723              1.577
 Vibration    19          0.689              1.685              1.450
 Vibration    20          0.715              1.608              1.241
 Vibration    21          0.725              1.580              1.178
 Vibration    22          0.733              1.559              1.131
 Vibration    23          0.744              1.529              1.071
 Vibration    24          0.837              1.294              0.709
 Vibration    25          0.859              1.243              0.650
 Vibration    26          0.866              1.227              0.632
 Vibration    27          0.895              1.161              0.565
 Vibration    28          0.919              1.111              0.517
 Vibration    29          0.924              1.100              0.507
 Vibration    30          0.971              1.007              0.430

 Optimization completed.
    -- Stationary point found.
 Normal termination of Gaussian 16 at Mon Dec 30 11:41:50 2019.
