 Gaussian 16, Revision A.03,
 Gaussian 16:  ES64L-G16RevA.03 25-Dec-2016

 ------------------------------------------------------------------
 #p opt freq=noraman m062x/6-31g(d) scrf=(smd,solvent=diethylether)
 ------------------------------------------------------------------

 -----
 title
 -----
 Symbolic Z-matrix:
 Charge =  0 Multiplicity = 1

 SCF Done:  E(RM062X) =  -1159.56515653     A.U. after   13 cycles
 SCF Done:  E(RM062X) =  -1159.56515778     A.U. after    8 cycles
 SCF Done:  E(RM062X) =  -1159.56515744     A.U. after    8 cycles
 SCF Done:  E(RM062X) =  -1159.56515752     A.U. after    8 cycles
 SCF Done:  E(RM062X) =  -1159.56515777     A.U. after    8 cycles
 SCF Done:  E(RM062X) =  -1159.56515744     A.U. after    7 cycles
 Optimization completed.
    -- Stationary point found.
 Normal termination of Gaussian 16 at Mon Dec 30 11:37:50 2019.

 --------------------------------------------------------------------
 #P Geom=AllCheck Guess=TCheck SCRF=Check GenChk RM062X/6-31G(d) Freq
 --------------------------------------------------------------------

 Structure from the checkpoint file:  "/scratch/cwagen_conformer_final_05/Gau-323710.chk"
 -----
 title
 -----
 Charge =  0 Multiplicity = 1

                         Standard orientation:
 ---------------------------------------------------------------------
 Center     Atomic      Atomic             Coordinates (Angstroms)
 Number     Number       Type             X           Y           Z
 ---------------------------------------------------------------------
      1          7           0        1.279880    0.692570    0.123836
      2          1           0        1.543139    0.858105    1.088708
      3          6           0        1.615853   -0.600578   -0.429375
      4          1           0        1.463580   -0.534499   -1.512287
      5          6           0        3.085696   -0.893783   -0.176012
      6          6           0        0.756687   -1.728714    0.147490
      7          1           0        3.400904   -1.890149   -0.485601
      8          8           0        1.263487   -2.680196    0.715463
      9          7           0       -0.589664   -1.629075   -0.038159
     10          1           0       -1.132548   -2.303632    0.493873
     11          6           0       -1.305950   -0.496771   -0.569543
     12          1           0       -0.749055   -0.021641   -1.383981
     13          6           0       -2.611853   -1.017370   -1.159029
     14          6           0       -1.610094    0.598243    0.457791
     15          1           0       -2.446560   -1.768782   -1.934546
     16          8           0       -1.951552    1.712012    0.144116
     17          8           0       -1.470150    0.173075    1.710791
     18          6           0       -1.727552    1.160688    2.715935
     19          1           0       -1.566785    0.660943    3.669784
     20          1           0       -1.037852    2.000925    2.602761
     21          1           0       -2.755089    1.521946    2.640084
     22          9           0       -3.338525    0.003009   -1.660977
     23          9           0       -3.338809   -1.582577   -0.151885
     24          9           0        3.826508    0.038377   -0.832781
     25          9           0        3.346991   -0.736743    1.151163
     26          6           0        1.055889    1.774282   -0.692940
     27          8           0        0.879902    1.640928   -1.893615
     28          6           0        0.972356    3.108446    0.004027
     29          1           0       -0.066366    3.447603   -0.031242
     30          1           0        1.304392    3.066004    1.043446
     31          1           0        1.585563    3.826919   -0.544518
 ---------------------------------------------------------------------

 SCF Done:  E(RM062X) =  -1159.56515744     A.U. after    1 cycles

 The electronic state is 1-A.
 Alpha  occ. eigenvalues --  -25.27132 -25.26952 -25.26249 -25.26123 -19.69625
 Alpha  occ. eigenvalues --  -19.64079 -19.62496 -19.61660 -14.79920 -14.79781
 Alpha  occ. eigenvalues --  -10.71976 -10.70838 -10.69180 -10.67112 -10.66218
 Alpha  occ. eigenvalues --  -10.61671 -10.60787 -10.59867 -10.54391  -1.40395
 Alpha  occ. eigenvalues --   -1.39460  -1.34241  -1.33255  -1.24488  -1.17779
 Alpha  occ. eigenvalues --   -1.16711  -1.14814  -1.05953  -1.04178  -0.89402
 Alpha  occ. eigenvalues --   -0.88160  -0.82950  -0.82373  -0.76634  -0.76161
 Alpha  occ. eigenvalues --   -0.69835  -0.68276  -0.66946  -0.65238  -0.64831
 Alpha  occ. eigenvalues --   -0.63610  -0.62982  -0.62444  -0.61652  -0.60650
 Alpha  occ. eigenvalues --   -0.58458  -0.56885  -0.56353  -0.55889  -0.54059
 Alpha  occ. eigenvalues --   -0.53563  -0.52668  -0.52420  -0.51563  -0.50152
 Alpha  occ. eigenvalues --   -0.49842  -0.49418  -0.49107  -0.48594  -0.48070
 Alpha  occ. eigenvalues --   -0.47708  -0.46543  -0.45880  -0.45545  -0.43813
 Alpha  occ. eigenvalues --   -0.43366  -0.42067  -0.41711  -0.37979  -0.37701
 Alpha  occ. eigenvalues --   -0.35607  -0.33735  -0.32232  -0.31842
 Alpha virt. eigenvalues --    0.04526   0.04868   0.06287   0.11543   0.14355
 Alpha virt. eigenvalues --    0.15300   0.16629   0.17321   0.18302   0.18667
 Alpha virt. eigenvalues --    0.18993   0.19393   0.19855   0.21312   0.21495

 Mulliken charges:
               1
     1  N   -0.654849
     2  H    0.391849
     3  C   -0.208358
     4  H    0.259598
     5  C    0.493422
     6  C    0.649269
     7  H    0.194391
     8  O   -0.527777
     9  N   -0.655523
    10  H    0.390447
    11  C   -0.168381
    12  H    0.253695
    13  C    0.470952
    14  C    0.671412
    15  H    0.203217
    16  O   -0.494370
    17  O   -0.478729
    18  C   -0.262830
    19  H    0.205279
    20  H    0.186673
    21  H    0.201700
    22  F   -0.292409
    23  F   -0.313450
    24  F   -0.312514
    25  F   -0.312997
    26  C    0.595791
    27  O   -0.533122
    28  C   -0.579735
    29  H    0.227764
    30  H    0.183901
    31  H    0.215682
 Sum of Mulliken charges =   0.00000

 Dipole moment (field-independent basis, Debye):
    X=             -0.6345    Y=              0.1255    Z=              2.5456  Tot=              2.6265
 Quadrupole moment (field-independent basis, Debye-Ang):
   XX=           -117.1176   YY=           -108.0011   ZZ=           -102.2068
   XY=              7.5243   XZ=             -4.0993   YZ=             17.5340

  Exact polarizability: 128.981  -8.492 143.565   3.800  -5.515 126.861
 Approx polarizability: 124.190 -11.312 144.652   7.630 -15.473 138.913

                      1                      2                      3
                      A                      A                      A
 Frequencies --     39.1795                48.0007                50.8722
 Red. masses --      6.0615                 5.3788                 6.9163
 Frc consts  --      0.0055                 0.0073                 0.0105
 IR Inten    --      1.4497                 0.1560                 2.4234

                      4                      5                      6
                      A                      A                      A
 Frequencies --     66.6684                78.1364                85.6020
 Red. masses --      9.7149                 8.9478                 5.9445
 Frc consts  --      0.0254                 0.0322                 0.0257
 IR Inten    --      0.9813                 8.6776                 3.2841

                      7                      8                      9
                      A                      A                      A
 Frequencies --     94.5057               108.8288               115.8318
 Red. masses --      7.8535                 3.0277                 1.6842
 Frc consts  --      0.0413                 0.0211                 0.0133
 IR Inten    --      0.5488                 3.1956                 0.6149

                     10                     11                     12
                      A                      A                      A
 Frequencies --    127.5566               143.8532               160.8151
 Red. masses --      3.5029                 4.1927                 6.5599
 Frc consts  --      0.0336                 0.0511                 0.1000
 IR Inten    --     10.1481                 5.2001                 6.0514

                     13                     14                     15
                      A                      A                      A
 Frequencies --    186.1970               190.1060               199.8555
 Red. masses --      4.9195                 1.7373                 2.4577
 Frc consts  --      0.1005                 0.0370                 0.0578
 IR Inten    --      1.3983                 7.6099                 9.7746

                     16                     17                     18
                      A                      A                      A
 Frequencies --    222.5142               260.0372               273.0474
 Red. masses --      8.1149                 5.9398                 8.6363
 Frc consts  --      0.2367                 0.2366                 0.3794
 IR Inten    --      2.2659                 9.4286                 0.6821

                     19                     20                     21
                      A                      A                      A
 Frequencies --    320.7521               352.8524               357.3656
 Red. masses --      6.4397                 5.9433                 6.6261
 Frc consts  --      0.3904                 0.4360                 0.4986
 IR Inten    --      4.0421                20.0701                 6.6242

                     22                     23                     24
                      A                      A                      A
 Frequencies --    379.2467               419.6381               441.3307
 Red. masses --      9.2106                 5.6204                 3.8706
 Frc consts  --      0.7805                 0.5831                 0.4442
 IR Inten    --      1.6661                16.9221                 1.8809

                     25                     26                     27
                      A                      A                      A
 Frequencies --    478.8317               530.9009               561.0044
 Red. masses --      8.8312                 4.2312                 2.7091
 Frc consts  --      1.1930                 0.7026                 0.5024
 IR Inten    --     27.8241                63.5026                30.9352

                     28                     29                     30
                      A                      A                      A
 Frequencies --    568.8013               596.1658               606.2246
 Red. masses --      2.3718                 6.1672                 4.3225
 Frc consts  --      0.4521                 1.2914                 0.9359
 IR Inten    --    157.1296                55.9091                32.2661

                     31                     32                     33
                      A                      A                      A
 Frequencies --    632.8722               641.8072               679.0152
 Red. masses --      2.1859                 1.6985                 3.8354
 Frc consts  --      0.5158                 0.4122                 1.0419
 IR Inten    --     35.9051                38.0430                60.8897

                     34                     35                     36
                      A                      A                      A
 Frequencies --    691.6581               739.9256               784.2413
 Red. masses --      3.5178                 6.3267                 4.9316
 Frc consts  --      0.9915                 2.0408                 1.7870
 IR Inten    --     15.6158               125.0408                14.4094

                     37                     38                     39
                      A                      A                      A
 Frequencies --    863.6980               914.6885               947.8702
 Red. masses --      5.4078                 5.1744                 4.7400
 Frc consts  --      2.3768                 2.5507                 2.5092
 IR Inten    --      8.2293                22.2562                 8.3947

                     40                     41                     42
                      A                      A                      A
 Frequencies --    975.2583              1011.4444              1024.0577
 Red. masses --      2.6822                 3.1539                 3.2340
 Frc consts  --      1.5031                 1.9010                 1.9982
 IR Inten    --     20.4641                18.6660                 3.9897

                     43                     44                     45
                      A                      A                      A
 Frequencies --   1039.7337              1072.1276              1106.8206
 Red. masses --      1.7137                 1.7367                 5.4631
 Frc consts  --      1.0915                 1.1762                 3.9432
 IR Inten    --      2.3740                17.5033                44.4796

                     46                     47                     48
                      A                      A                      A
 Frequencies --   1145.7647              1174.7708              1179.4128
 Red. masses --      5.0888                 4.1185                 4.5440
 Frc consts  --      3.9360                 3.3488                 3.7241
 IR Inten    --    296.7004                55.4533               120.3998

                     49                     50                     51
                      A                      A                      A
 Frequencies --   1194.9302              1197.4785              1209.3871
 Red. masses --      1.2858                 3.4018                 2.7836
 Frc consts  --      1.0817                 2.8740                 2.3988
 IR Inten    --      3.3339               134.3392                90.1328

                     52                     53                     54
                      A                      A                      A
 Frequencies --   1218.3071              1235.1217              1278.4308
 Red. masses --      2.5080                 1.7053                 1.6098
 Frc consts  --      2.1933                 1.5328                 1.5502
 IR Inten    --      5.1115                 6.8084                30.2929

                     55                     56                     57
                      A                      A                      A
 Frequencies --   1298.3611              1325.4210              1339.1509
 Red. masses --      1.5214                 1.2500                 1.5868
 Frc consts  --      1.5111                 1.2938                 1.6766
 IR Inten    --    139.9304                 8.0784                53.2902

                     58                     59                     60
                      A                      A                      A
 Frequencies --   1342.3539              1346.6374              1409.4235
 Red. masses --      1.6362                 4.2776                 1.6650
 Frc consts  --      1.7371                 4.5704                 1.9487
 IR Inten    --     78.8009               414.3873                22.0197

                     61                     62                     63
                      A                      A                      A
 Frequencies --   1419.7023              1430.1347              1434.0213
 Red. masses --      1.3030                 1.3133                 1.5760
 Frc consts  --      1.5474                 1.5826                 1.9095
 IR Inten    --     79.8938                53.1952               102.0828

                     64                     65                     66
                      A                      A                      A
 Frequencies --   1434.4694              1453.7165              1495.1702
 Red. masses --      1.4646                 2.1632                 1.0514
 Frc consts  --      1.7756                 2.6934                 1.3848
 IR Inten    --      7.9878               157.8010                19.2049

                     67                     68                     69
                      A                      A                      A
 Frequencies --   1502.9518              1507.2424              1516.3986
 Red. masses --      1.0872                 1.2613                 1.0465
 Frc consts  --      1.4469                 1.6882                 1.4178
 IR Inten    --     32.6600                30.7650                 8.0983

                     70                     71                     72
                      A                      A                      A
 Frequencies --   1522.4850              1536.0527              1557.6640
 Red. masses --      1.0458                 2.1542                 2.0266
 Frc consts  --      1.4283                 2.9947                 2.8971
 IR Inten    --     13.1669               116.9855               299.7948

                     73                     74                     75
                      A                      A                      A
 Frequencies --   1819.0644              1833.7488              1878.0824
 Red. masses --      9.9889                 9.6865                11.5122
 Frc consts  --     19.4745                19.1910                23.9242
 IR Inten    --    372.7394               567.7757               270.2548

                     76                     77                     78
                      A                      A                      A
 Frequencies --   3106.9958              3109.9006              3131.8553
 Red. masses --      1.0353                 1.0316                 1.0837
 Frc consts  --      5.8886                 5.8783                 6.2627
 IR Inten    --      2.7559                22.1461                12.2272

                     79                     80                     81
                      A                      A                      A
 Frequencies --   3136.2654              3172.5867              3191.9931
 Red. masses --      1.0867                 1.0891                 1.1027
 Frc consts  --      6.2976                 6.4588                 6.6193
 IR Inten    --     17.5616                29.3875                 4.5123

                     82                     83                     84
                      A                      A                      A
 Frequencies --   3192.3780              3197.9545              3201.3782
 Red. masses --      1.1069                 1.1054                 1.0892
 Frc consts  --      6.6463                 6.6604                 6.5768
 IR Inten    --     16.8015                 9.9897                24.6812

                     85                     86                     87
                      A                      A                      A
 Frequencies --   3229.8446              3594.8170              3626.8357
 Red. masses --      1.1071                 1.0762                 1.0784
 Frc consts  --      6.8048                 8.1938                 8.3575
 IR Inten    --      9.8513               105.7386                88.8374

 - Thermochemistry -
 -------------------
 Temperature   298.150 Kelvin.  Pressure   1.00000 Atm.
 Atom     1 has atomic number  7 and mass  14.00307

 Molecular mass:   288.07332 amu.
 Principal axes and moments of inertia in atomic units:
                           1         2         3
     Eigenvalues --  3442.467346508.161097376.67641
           X            0.99985   0.00230  -0.01703
           Y           -0.00101   0.99712   0.07578
           Z            0.01715  -0.07575   0.99698
 This molecule is an asymmetric top.
 Rotational symmetry number  1.
 Warning -- assumption of classical behavior for rotation
           may cause significant error
 Rotational temperatures (Kelvin)      0.02516     0.01331     0.01174
 Rotational constants (GHZ):           0.52426     0.27730     0.24466
 Zero-point vibrational energy     612001.1 (Joules/Mol)
                                  146.27178 (Kcal/Mol)
 Warning -- explicit consideration of  30 degrees of freedom as
           vibrations may cause significant error
 Vibrational temperatures:     56.37    69.06    73.19    95.92   112.42
          (Kelvin)            123.16   135.97   156.58   166.66   183.53
                              206.97   231.38   267.90   273.52   287.55
                              320.15   374.14   392.85   461.49   507.68
                              514.17   545.65   603.77   634.98   688.93
                              763.85   807.16   818.38   857.75   872.22
                              910.56   923.42   976.95   995.14  1064.59
                             1128.35  1242.67  1316.03  1363.77  1403.18
                             1455.24  1473.39  1495.94  1542.55  1592.47
                             1648.50  1690.23  1696.91  1719.24  1722.90
                             1740.04  1752.87  1777.06  1839.38  1868.05
                             1906.99  1926.74  1931.35  1937.51  2027.85
                             2042.63  2057.64  2063.24  2063.88  2091.57
                             2151.22  2162.41  2168.59  2181.76  2190.52
                             2210.04  2241.13  2617.23  2638.36  2702.14
                             4470.27  4474.45  4506.04  4512.39  4564.64
                             4592.57  4593.12  4601.14  4606.07  4647.03
                             5172.14  5218.21

 Zero-point correction=                           0.233099 (Hartree/Particle)
 Thermal correction to Energy=                    0.252550
 Thermal correction to Enthalpy=                  0.253494
 Thermal correction to Gibbs Free Energy=         0.183927
 Sum of electronic and zero-point Energies=          -1159.332059
 Sum of electronic and thermal Energies=             -1159.312607
 Sum of electronic and thermal Enthalpies=           -1159.311663
 Sum of electronic and thermal Free Energies=        -1159.381231

                     E (Thermal)             CV                S
                      KCal/Mol        Cal/Mol-Kelvin    Cal/Mol-Kelvin
 Total                  158.477             68.206            146.417
 Electronic               0.000              0.000              0.000
 Translational            0.889              2.981             42.872
 Rotational               0.889              2.981             33.468
 Vibrational            156.700             62.244             70.077
 Vibration     1          0.594              1.981              5.300
 Vibration     2          0.595              1.978              4.898
 Vibration     3          0.595              1.977              4.783
 Vibration     4          0.598              1.970              4.249
 Vibration     5          0.599              1.964              3.937
 Vibration     6          0.601              1.959              3.758
 Vibration     7          0.603              1.953              3.565
 Vibration     8          0.606              1.942              3.290
 Vibration     9          0.608              1.936              3.169
 Vibration    10          0.611              1.926              2.983
 Vibration    11          0.616              1.909              2.752
 Vibration    12          0.622              1.890              2.540
 Vibration    13          0.632              1.859              2.265
 Vibration    14          0.633              1.854              2.227
 Vibration    15          0.638              1.840              2.134
 Vibration    16          0.648              1.807              1.939
 Vibration    17          0.668              1.746              1.662
 Vibration    18          0.676              1.723              1.577
 Vibration    19          0.706              1.634              1.306
 Vibration    20          0.729              1.569              1.153
 Vibration    21          0.733              1.560              1.134
 Vibration    22          0.749              1.514              1.042
 Vibration    23          0.782              1.428              0.893
 Vibration    24          0.801              1.380              0.822
 Vibration    25          0.835              1.297              0.713
 Vibration    26          0.886              1.182              0.585
 Vibration    27          0.917              1.116              0.522
 Vibration    28          0.925              1.099              0.507
 Vibration    29          0.954              1.040              0.456
 Vibration    30          0.965              1.019              0.439

 Optimization completed.
    -- Stationary point found.
 Normal termination of Gaussian 16 at Mon Dec 30 11:45:44 2019.
