 Gaussian 16, Revision A.03,
 Gaussian 16:  AS64L-G16RevA.03 25-Dec-2016

 ----------------------------------------------------------------------
 #p opt=(ts, calcfc, noeigentest) freq=noraman b3lyp/6-31+g(d) scrf=(sm
 d, solvent=tetrahydrofuran)
 ----------------------------------------------------------------------

 -----
 title
 -----
 Symbolic Z-matrix:
 Charge = -1 Multiplicity = 1

 SCF Done:  E(RB3LYP) =  -706.416106617     A.U. after   13 cycles
 SCF Done:  E(RB3LYP) =  -706.411815439     A.U. after   12 cycles
 SCF Done:  E(RB3LYP) =  -706.410245657     A.U. after   12 cycles
 SCF Done:  E(RB3LYP) =  -706.410179686     A.U. after   11 cycles
 SCF Done:  E(RB3LYP) =  -706.410165572     A.U. after   11 cycles
 SCF Done:  E(RB3LYP) =  -706.410165667     A.U. after    9 cycles
 Optimization completed.
    -- Stationary point found.
 Normal termination of Gaussian 16 at Wed Jan  8 10:04:33 2020.

 ---------------------------------------------------------------------
 #P Geom=AllCheck Guess=TCheck SCRF=Check GenChk RB3LYP/6-31+G(d) Freq
 ---------------------------------------------------------------------

 Structure from the checkpoint file:  "/scratch/users/cwagen/cwagen_scan_ts/Gau-31138.chk"
 -----
 title
 -----
 Charge = -1 Multiplicity = 1

                         Standard orientation:
 ---------------------------------------------------------------------
 Center     Atomic      Atomic             Coordinates (Angstroms)
 Number     Number       Type             X           Y           Z
 ---------------------------------------------------------------------
      1          6           0       -0.332895    0.602073    0.252206
      2          8           0       -0.385581    0.974532    1.384432
      3          6           0       -0.364015    1.419151   -1.009003
      4          1           0       -0.094744    0.827714   -1.882460
      5          1           0       -1.385261    1.805657   -1.126449
      6          1           0        0.328264    2.258685   -0.892864
      7         17           0       -1.288932   -1.112809   -0.117416
      8          6           0        1.740339   -0.230037   -0.054703
      9          7           0        2.841095   -0.645383   -0.044087
 ---------------------------------------------------------------------

 SCF Done:  E(RB3LYP) =  -706.410165667     A.U. after    1 cycles

 The electronic state is 1-A.
 Alpha  occ. eigenvalues -- -101.49097 -19.15098 -14.27544 -10.32165 -10.18360
 Alpha  occ. eigenvalues --  -10.14541  -9.40694  -7.16897  -7.16224  -7.16199
 Alpha  occ. eigenvalues --   -1.05973  -0.83303  -0.77808  -0.72524  -0.52625
 Alpha  occ. eigenvalues --   -0.45211  -0.44837  -0.43747  -0.37683  -0.37255
 Alpha  occ. eigenvalues --   -0.34980  -0.28817  -0.28008  -0.27573  -0.27100
 Alpha  occ. eigenvalues --   -0.26030  -0.24105
 Alpha virt. eigenvalues --   -0.01313   0.01983   0.03614   0.05179   0.05978
 Alpha virt. eigenvalues --    0.06206   0.08131   0.08673   0.09130   0.09852
 Alpha virt. eigenvalues --    0.10674   0.10823   0.11270   0.13141   0.13729

 Mulliken charges:
               1
     1  C    0.028123
     2  O   -0.272926
     3  C   -0.513020
     4  H    0.257735
     5  H    0.248324
     6  H    0.252614
     7  Cl  -0.226385
     8  C   -0.093181
     9  N   -0.681284
 Sum of Mulliken charges =  -1.00000

 Dipole moment (field-independent basis, Debye):
    X=             -6.5267    Y=              4.4342    Z=             -2.6821  Tot=              8.3339
 Quadrupole moment (field-independent basis, Debye-Ang):
   XX=            -74.6759   YY=            -48.3494   ZZ=            -48.4869
   XY=              3.0361   XZ=              1.5502   YZ=             -4.0984

  Exact polarizability: 107.446  -1.796  88.605  -0.135   5.504  66.966
 Approx polarizability: 113.806  -1.635 102.936  -0.987  15.171  81.226

 ******    1 imaginary frequencies (negative Signs) ******

                      1                      2                      3
                      A                      A                      A
 Frequencies --   -250.8762                72.1382                76.6709
 Red. masses --     11.4711                11.5277                 7.6417
 Frc consts  --      0.4254                 0.0353                 0.0265
 IR Inten    --    466.8244                 4.1123                 7.1146

                      4                      5                      6
                      A                      A                      A
 Frequencies --    222.7316               255.7417               282.6209
 Red. masses --      5.8962                 1.8694                 3.2050
 Frc consts  --      0.1723                 0.0720                 0.1508
 IR Inten    --     32.5255                14.3862                48.6552

                      7                      8                      9
                      A                      A                      A
 Frequencies --    303.8910               367.5763               462.8464
 Red. masses --      2.5589                 5.6074                 5.6875
 Frc consts  --      0.1392                 0.4464                 0.7179
 IR Inten    --     61.0212                17.4517               157.7409

                     10                     11                     12
                      A                      A                      A
 Frequencies --    527.5205               956.7589              1047.6864
 Red. masses --      4.5802                 4.0710                 1.3919
 Frc consts  --      0.7510                 2.1956                 0.9002
 IR Inten    --    199.6067               175.9697               124.0456

                     13                     14                     15
                      A                      A                      A
 Frequencies --   1085.3474              1411.6424              1472.2433
 Red. masses --      1.5172                 1.2418                 1.0467
 Frc consts  --      1.0530                 1.4579                 1.3367
 IR Inten    --    129.8058                15.3419                18.8631

                     16                     17                     18
                      A                      A                      A
 Frequencies --   1486.4815              1842.9778              2176.8621
 Red. masses --      1.0441                12.2003                12.8341
 Frc consts  --      1.3593                24.4153                35.8326
 IR Inten    --      3.0492               670.4894                 8.2304

                     19                     20                     21
                      A                      A                      A
 Frequencies --   3056.8853              3134.9245              3199.5328
 Red. masses --      1.0421                 1.0971                 1.1014
 Frc consts  --      5.7374                 6.3528                 6.6431
 IR Inten    --     13.3181                12.1359                 2.8055

 - Thermochemistry -
 -------------------
 Temperature   298.150 Kelvin.  Pressure   1.00000 Atm.
 Atom     1 has atomic number  6 and mass  12.00000

 Molecular mass:   103.99032 amu.
 Principal axes and moments of inertia in atomic units:
                           1         2         3
     Eigenvalues --   542.30250 942.582131134.70084
           X            0.99958  -0.02716   0.00982
           Y            0.02808   0.99345  -0.11073
           Z           -0.00675   0.11096   0.99380
 This molecule is an asymmetric top.
 Rotational symmetry number  1.
 Warning -- assumption of classical behavior for rotation
           may cause significant error
 Rotational temperatures (Kelvin)      0.15972     0.09189     0.07633
 Rotational constants (GHZ):           3.32792     1.91468     1.59050
    1 imaginary frequencies ignored.
 Zero-point vibrational energy     140220.8 (Joules/Mol)
                                   33.51357 (Kcal/Mol)
 Warning -- explicit consideration of   9 degrees of freedom as
           vibrations may cause significant error
 Vibrational temperatures:    103.79   110.31   320.46   367.96   406.63
          (Kelvin)            437.23   528.86   665.93   758.98  1376.56
                             1507.39  1561.57  2031.04  2118.23  2138.72
                             2651.63  3132.02  4398.18  4510.46  4603.41

 Zero-point correction=                           0.053407 (Hartree/Particle)
 Thermal correction to Energy=                    0.060591
 Thermal correction to Enthalpy=                  0.061535
 Thermal correction to Gibbs Free Energy=         0.021131
 Sum of electronic and zero-point Energies=           -706.356758
 Sum of electronic and thermal Energies=              -706.349575
 Sum of electronic and thermal Enthalpies=            -706.348630
 Sum of electronic and thermal Free Energies=         -706.389034

                     E (Thermal)             CV                S
                      KCal/Mol        Cal/Mol-Kelvin    Cal/Mol-Kelvin
 Total                   38.022             22.224             85.037
 Electronic               0.000              0.000              0.000
 Translational            0.889              2.981             39.835
 Rotational               0.889              2.981             27.852
 Vibrational             36.244             16.262             17.350
 Vibration     1          0.598              1.967              4.094
 Vibration     2          0.599              1.965              3.974
 Vibration     3          0.648              1.806              1.937
 Vibration     4          0.666              1.753              1.691
 Vibration     5          0.682              1.706              1.518
 Vibration     6          0.695              1.666              1.395
 Vibration     7          0.740              1.539              1.090
 Vibration     8          0.820              1.332              0.758
 Vibration     9          0.882              1.189              0.593

 Optimization completed.
    -- Stationary point found.
 Normal termination of Gaussian 16 at Wed Jan  8 10:05:30 2020.
